unknown system                          
  0.81069619563574635     
     4.000000    0.000000    0.000000
     0.000000    4.000000    0.000000
     0.000000    0.000000    4.000000
   H 
    64
Direct
  0.169993  0.187369  0.579955
  0.550777  0.425119  0.265035
  0.164009  0.089157  0.217192
  0.784019  0.490212  0.345239
  0.000146  0.304636  0.368521
  0.864998  0.422619  0.810856
  0.313218  0.733992  0.195173
  0.098666  0.614888  0.973153
  0.464808  0.729059  0.946093
  0.593399  0.805480  0.590642
  0.330313  0.528569  0.886176
  0.800201  0.184185  0.084378
  0.629352  0.567506  0.833059
  0.908189  0.971564  0.176148
  0.471688  0.118020  0.431295
  0.229929  0.101033  0.004560
  0.991405  0.646090  0.283953
  0.279394  0.959318  0.379080
  0.704920  0.394418  0.061967
  0.075073  0.636700  0.714896
  0.191089  0.842828  0.877661
  0.073318  0.319777  0.127213
  0.016225  0.061034  0.707783
  0.967109  0.097847  0.973312
  0.388704  0.328784  0.975093
  0.748510  0.188107  0.787536
  0.231082  0.443623  0.684865
  0.391708  0.949396  0.585996
  0.206603  0.492641  0.378271
  0.857180  0.646029  0.943169
  0.002042  0.527348  0.517564
  0.681242  0.347713  0.527806
  0.495299  0.683487  0.351832
  0.431894  0.927521  0.799305
  0.915905  0.826940  0.441392
  0.100639  0.886104  0.575505
  0.499949  0.414886  0.726117
  0.524832  0.174391  0.667046
  0.389881  0.317091  0.511394
  0.205813  0.742215  0.414900
  0.524898  0.115992  0.212082
  0.989963  0.059263  0.390262
  0.346016  0.283354  0.256522
  0.759922  0.166050  0.332590
  0.599376  0.910667  0.343904
  0.689012  0.582710  0.592519
  0.758088  0.057535  0.532501
  0.563113  0.228462  0.954093
  0.765743  0.755136  0.283337
  0.957837  0.296780  0.619933
  0.743584  0.817304  0.056131
  0.274344  0.480736  0.108675
  0.721371  0.925015  0.756023
  0.948925  0.893088  0.866115
  0.426567  0.562108  0.534199
  0.065196  0.306756  0.901374
  0.586717  0.613011  0.093638
  0.124108  0.839370  0.099599
  0.335105  0.699389  0.667761
  0.916904  0.488476  0.127805
  0.858666  0.731829  0.680255
  0.423264  0.949373  0.108784
  0.269847  0.125820  0.780454
  0.607912  0.984078  0.980313

   28   28   28
 0.67704136387E+02 0.59389157116E+02 0.53313991266E+02 0.52418958145E+02 0.56030619445E+02
 0.61930322008E+02 0.65900788527E+02 0.64779931483E+02 0.59607342986E+02 0.54519155722E+02
 0.52788662421E+02 0.54816556213E+02 0.59567138032E+02 0.66000405154E+02 0.75063466638E+02
 0.87684510739E+02 0.99295804877E+02 0.10245935096E+03 0.93398389363E+02 0.76178273758E+02
 0.59393309257E+02 0.48885110240E+02 0.45138917562E+02 0.47318571999E+02 0.54225194301E+02
 0.63382367000E+02 0.70944076783E+02 0.72751572253E+02 0.79843616916E+02 0.67359873622E+02
 0.57808805124E+02 0.56275038753E+02 0.62705429390E+02 0.73921729393E+02 0.82107230802E+02
 0.81035067343E+02 0.71428995744E+02 0.59824932750E+02 0.52309150491E+02 0.50291052359E+02
 0.52502300232E+02 0.58244327943E+02 0.66916483004E+02 0.78055651940E+02 0.87484363337E+02
 0.89273012192E+02 0.80969428087E+02 0.66721143618E+02 0.53965113986E+02 0.47281881772E+02
 0.46724240670E+02 0.51720602121E+02 0.61308741754E+02 0.73733513293E+02 0.84338402985E+02
 0.87094459354E+02 0.91440640358E+02 0.76053178798E+02 0.63991895599E+02 0.62040914732E+02
 0.71451463347E+02 0.86991146543E+02 0.98171195483E+02 0.96467983628E+02 0.82471940480E+02
 0.64675090885E+02 0.51758131565E+02 0.46254666420E+02 0.46312972493E+02 0.51081280254E+02
 0.58636829954E+02 0.67232494025E+02 0.73507518699E+02 0.73847455362E+02 0.67562597455E+02
 0.58497003338E+02 0.51695445958E+02 0.49802680203E+02 0.52685647195E+02 0.59720467932E+02
 0.70602141711E+02 0.84665757091E+02 0.96930921186E+02 0.10019355529E+03 0.95280017829E+02
 0.80078695767E+02 0.68023536611E+02 0.66040674068E+02 0.75919685167E+02 0.92083659445E+02
 0.10359053877E+03 0.10136578423E+03 0.85810385458E+02 0.65851674127E+02 0.50951259681E+02
 0.44145393442E+02 0.43462661564E+02 0.47921838700E+02 0.55145802567E+02 0.62293076204E+02
 0.66338065964E+02 0.65399636138E+02 0.60762120407E+02 0.55861298680E+02 0.53856800778E+02
 0.56301864685E+02 0.62120290689E+02 0.69407851942E+02 0.78419541405E+02 0.90273661616E+02
 0.10118333447E+03 0.10393545814E+03 0.89567528197E+02 0.78274578419E+02 0.69056323568E+02
 0.67101452993E+02 0.73924215281E+02 0.85996451619E+02 0.94670285904E+02 0.92317421225E+02
 0.79112846002E+02 0.62509414617E+02 0.50396174146E+02 0.45187599207E+02 0.45471426182E+02
 0.50736454933E+02 0.59076107973E+02 0.66979004810E+02 0.70150571113E+02 0.67460785416E+02
 0.62202355219E+02 0.58568313727E+02 0.59324708533E+02 0.64728770073E+02 0.71770764775E+02
 0.77202795606E+02 0.81392982216E+02 0.87359562471E+02 0.94109378333E+02 0.95875630001E+02
 0.80009826582E+02 0.75067863486E+02 0.70072951311E+02 0.67643905724E+02 0.68941237133E+02
 0.73677556951E+02 0.77302525064E+02 0.75125464122E+02 0.67093884301E+02 0.57800493784E+02
 0.51804897842E+02 0.50189420800E+02 0.52634490629E+02 0.59469545300E+02 0.69675480579E+02
 0.78852817776E+02 0.81477394214E+02 0.76454910840E+02 0.68710775057E+02 0.64010262781E+02
 0.65213777489E+02 0.70849926087E+02 0.76672800930E+02 0.78846037746E+02 0.77763715032E+02
 0.77573563392E+02 0.80087024978E+02 0.81830256326E+02 0.73819759824E+02 0.75502098803E+02
 0.74147485652E+02 0.70299502503E+02 0.65898674069E+02 0.62942507212E+02 0.61297902274E+02
 0.59496311588E+02 0.57309683712E+02 0.56241547813E+02 0.57359848954E+02 0.59916128494E+02
 0.64084348715E+02 0.71058132521E+02 0.81259261314E+02 0.90239832717E+02 0.91975624062E+02
 0.85244060584E+02 0.75548722681E+02 0.69351904937E+02 0.68973569142E+02 0.72072979347E+02
 0.74473775730E+02 0.72968574600E+02 0.68520550405E+02 0.65310772300E+02 0.66287402648E+02
 0.69978924561E+02 0.72863908899E+02 0.80211609187E+02 0.81366349469E+02 0.75496052357E+02
 0.66030743290E+02 0.57363892520E+02 0.52047912064E+02 0.50959669504E+02 0.53912963241E+02
 0.60692595221E+02 0.68971664967E+02 0.75394048578E+02 0.78637415831E+02 0.81602260205E+02
 0.87387799443E+02 0.93317821171E+02 0.93763752064E+02 0.87360408623E+02 0.78547166465E+02
 0.72656854572E+02 0.70624642393E+02 0.69977763930E+02 0.68008511093E+02 0.63264256446E+02
 0.57420781168E+02 0.54451271570E+02 0.56591459482E+02 0.63628823369E+02 0.73842445668E+02
 0.85006990580E+02 0.87741805471E+02 0.80273091818E+02 0.67156120783E+02 0.55123860873E+02
 0.48437091589E+02 0.48738287784E+02 0.56418321932E+02 0.70260974727E+02 0.84716291757E+02
 0.92915860756E+02 0.92601050836E+02 0.88078139065E+02 0.85786575869E+02 0.86396956802E+02
 0.85634241734E+02 0.81824704054E+02 0.77273459239E+02 0.74497323254E+02 0.72323337608E+02
 0.68425738539E+02 0.62559358968E+02 0.55465238688E+02 0.49311283201E+02 0.47037375135E+02
 0.50828074525E+02 0.60629048496E+02 0.72601659206E+02 0.84448992957E+02 0.87493177385E+02
 0.79760931358E+02 0.66105630974E+02 0.54015522013E+02 0.48361718443E+02 0.51014025823E+02
 0.62453724843E+02 0.80385910123E+02 0.97325515547E+02 0.10460049679E+03 0.99548109508E+02
 0.87813025371E+02 0.78026993801E+02 0.73890341054E+02 0.72852594633E+02 0.73106889552E+02
 0.75090089221E+02 0.77441816853E+02 0.76390448558E+02 0.70357736342E+02 0.61305031948E+02
 0.52425704347E+02 0.45890946646E+02 0.43946938806E+02 0.48300323371E+02 0.58653065336E+02
 0.67489107686E+02 0.76703344167E+02 0.78809672596E+02 0.72373509741E+02 0.61604059234E+02
 0.52916357249E+02 0.50660668343E+02 0.56378784242E+02 0.69501333115E+02 0.86877180176E+02
 0.10115270078E+03 0.10451204301E+03 0.95171650805E+02 0.79557044153E+02 0.66766274375E+02
 0.61090711148E+02 0.61122008852E+02 0.65679779597E+02 0.73685903485E+02 0.80694167077E+02
 0.81332912050E+02 0.74177316255E+02 0.63019955155E+02 0.52972303217E+02 0.46501429651E+02
 0.44531086288E+02 0.48018988678E+02 0.56416811029E+02 0.60493432168E+02 0.65485582229E+02
 0.66126676276E+02 0.61887671341E+02 0.55796180229E+02 0.52304541027E+02 0.54757094541E+02
 0.63766764862E+02 0.76818388680E+02 0.89799292671E+02 0.97285216272E+02 0.94618413350E+02
 0.82127809440E+02 0.66265619280E+02 0.54666945733E+02 0.50419850356E+02 0.52330909051E+02
 0.59707634547E+02 0.70859094736E+02 0.80416854992E+02 0.82361964202E+02 0.75478198885E+02
 0.64448454634E+02 0.55054725714E+02 0.49450471374E+02 0.47441246934E+02 0.49187612846E+02
 0.54140086943E+02 0.54989767048E+02 0.56394696275E+02 0.55988082222E+02 0.53874639084E+02
 0.51990278209E+02 0.53378507549E+02 0.60331396004E+02 0.72280796834E+02 0.84387909073E+02
 0.91684611962E+02 0.91170841055E+02 0.82367722154E+02 0.68017892634E+02 0.54014276091E+02
 0.45406995033E+02 0.43389686456E+02 0.46964552682E+02 0.55032781182E+02 0.65758031604E+02
 0.74547635917E+02 0.76557299315E+02 0.71261226058E+02 0.63033007153E+02 0.56635115399E+02
 0.53046017236E+02 0.51501566336E+02 0.51607809254E+02 0.52969832025E+02 0.53298252638E+02
 0.52761186190E+02 0.52158710003E+02 0.51610653651E+02 0.52419399359E+02 0.56714880349E+02
 0.66143892879E+02 0.78891757408E+02 0.89487434810E+02 0.92393428408E+02 0.85969311573E+02
 0.73069175655E+02 0.58392809063E+02 0.46774558406E+02 0.41099593169E+02 0.41392304182E+02
 0.46142188227E+02 0.53218710219E+02 0.60746541833E+02 0.66042011372E+02 0.66771221757E+02
 0.63514918955E+02 0.59523939014E+02 0.57355814787E+02 0.56549644109E+02 0.56179100343E+02
 0.55401378212E+02 0.54204187087E+02 0.56226782706E+02 0.55724379905E+02 0.56183493551E+02
 0.56683382198E+02 0.57748772795E+02 0.61623901981E+02 0.69816092217E+02 0.80438076004E+02
 0.88532949875E+02 0.88898027545E+02 0.80355067776E+02 0.66626770613E+02 0.53400736370E+02
 0.44640054619E+02 0.42094135719E+02 0.44790191131E+02 0.50233895000E+02 0.55653285557E+02
 0.59119655137E+02 0.60020520264E+02 0.58726798165E+02 0.56966947771E+02 0.56741532606E+02
 0.58331191623E+02 0.60338511067E+02 0.61232098047E+02 0.60247118010E+02 0.58027961992E+02
 0.62632707219E+02 0.64654195928E+02 0.67869314908E+02 0.69038042307E+02 0.67676495382E+02
 0.67050600050E+02 0.70175149406E+02 0.76106756062E+02 0.80825073992E+02 0.80000949411E+02
 0.72486476952E+02 0.61418766506E+02 0.51858028068E+02 0.47131579598E+02 0.48061509075E+02
 0.53100527572E+02 0.58941205365E+02 0.62172043534E+02 0.61578896760E+02 0.58481512152E+02
 0.55263084092E+02 0.54190220308E+02 0.56549629331E+02 0.61296888709E+02 0.65569281014E+02
 0.66994514031E+02 0.65668502367E+02 0.63495744946E+02 0.69710296048E+02 0.75488994635E+02
 0.82171292064E+02 0.83761752490E+02 0.78660365758E+02 0.71490780659E+02 0.67724639663E+02
 0.67962472495E+02 0.69203358392E+02 0.68289740968E+02 0.63949095372E+02 0.57952628981E+02
 0.53844822110E+02 0.53700934156E+02 0.57844258729E+02 0.64595921350E+02 0.70032776115E+02
 0.70557200447E+02 0.65964285964E+02 0.59493850131E+02 0.55023774476E+02 0.54819319633E+02
 0.59841783990E+02 0.67741618649E+02 0.73622961083E+02 0.74401485846E+02 0.71457915491E+02
 0.68668553516E+02 0.73249164716E+02 0.81694073999E+02 0.90843104557E+02 0.92735092585E+02
 0.84819732100E+02 0.72476090615E+02 0.63109284713E+02 0.58950556216E+02 0.57817349263E+02
 0.57686703330E+02 0.57408150339E+02 0.57483719583E+02 0.59247750345E+02 0.63260644401E+02
 0.69173093602E+02 0.75476938021E+02 0.78808266790E+02 0.76332646974E+02 0.68889331637E+02
 0.60791794144E+02 0.56398127881E+02 0.57762716314E+02 0.65475747269E+02 0.75806627659E+02
 0.82259698852E+02 0.81312415932E+02 0.75695269263E+02 0.71264345625E+02 0.70582312155E+02
 0.79172824339E+02 0.88741960656E+02 0.91024096199E+02 0.82901094965E+02 0.69294323386E+02
 0.57629121456E+02 0.51337978971E+02 0.49388950248E+02 0.50744969856E+02 0.54492163592E+02
 0.60338943349E+02 0.67755208772E+02 0.74738262737E+02 0.79663356044E+02 0.82244522541E+02
 0.81533939137E+02 0.76267374433E+02 0.68050411991E+02 0.60904967581E+02 0.58270737342E+02
 0.61390712791E+02 0.70371258824E+02 0.80920796666E+02 0.86271649287E+02 0.83163008305E+02
 0.75202921514E+02 0.69169502647E+02 0.63047634182E+02 0.70028263409E+02 0.78605371136E+02
 0.81707294852E+02 0.76034329139E+02 0.64843905537E+02 0.54060173783E+02 0.47160614200E+02
 0.44964427624E+02 0.47592106206E+02 0.54552523292E+02 0.65498737125E+02 0.77586797105E+02
 0.85981488690E+02 0.87731848704E+02 0.84155885346E+02 0.78160398715E+02 0.71117300523E+02
 0.64361552009E+02 0.60411047717E+02 0.60681999401E+02 0.65014755970E+02 0.72822426734E+02
 0.80481410468E+02 0.82768509006E+02 0.77615267385E+02 0.68787217558E+02 0.62555165935E+02
 0.54964178564E+02 0.60705874656E+02 0.68586141587E+02 0.73253759968E+02 0.71269320844E+02
 0.63759085127E+02 0.54563544414E+02 0.47213699880E+02 0.44310561492E+02 0.46990407157E+02
 0.55454261463E+02 0.69178741831E+02 0.83563992353E+02 0.91743723303E+02 0.90092375609E+02
 0.81299722511E+02 0.71374307242E+02 0.64282200795E+02 0.60643589433E+02 0.61110090185E+02
 0.65015863037E+02 0.70074796360E+02 0.74435881482E+02 0.76601140553E+02 0.74489052550E+02
 0.67646833646E+02 0.59380815242E+02 0.54436499838E+02 0.49868359648E+02 0.56062467486E+02
 0.64711117975E+02 0.71666314872E+02 0.72935089967E+02 0.67858170133E+02 0.59080419057E+02
 0.50569959560E+02 0.46002322940E+02 0.47289615585E+02 0.54844755929E+02 0.67889619506E+02
 0.81349233115E+02 0.87996442600E+02 0.84352490708E+02 0.73860231406E+02 0.63664679604E+02
 0.58593193022E+02 0.59023257165E+02 0.64793353676E+02 0.72831337955E+02 0.78292646934E+02
 0.78308834976E+02 0.73785942988E+02 0.66841870359E+02 0.58801598221E+02 0.51709426611E+02
 0.48291450142E+02 0.48630622513E+02 0.56014132215E+02 0.66531337840E+02 0.75888303996E+02
 0.79265293795E+02 0.74952923985E+02 0.65371378866E+02 0.55120359169E+02 0.48341345790E+02
 0.47487246806E+02 0.52564426494E+02 0.62361080933E+02 0.72498424267E+02 0.77044778902E+02
 0.73343733839E+02 0.64690484509E+02 0.57450687030E+02 0.55762097960E+02 0.60390692746E+02
 0.70712811275E+02 0.81685461108E+02 0.86697051608E+02 0.82885564082E+02 0.73129705636E+02
 0.62568084273E+02 0.54053808178E+02 0.48154201174E+02 0.46026495694E+02 0.50509727437E+02
 0.58178207690E+02 0.69383506417E+02 0.79843115277E+02 0.84303885763E+02 0.80309732907E+02
 0.69969769496E+02 0.58361896624E+02 0.49922493933E+02 0.47368784493E+02 0.50353308496E+02
 0.56917324991E+02 0.63624151761E+02 0.66546013804E+02 0.64225670605E+02 0.59228669557E+02
 0.56050737182E+02 0.57378826020E+02 0.64260859578E+02 0.75759272431E+02 0.86409669730E+02
 0.89583815779E+02 0.83113939611E+02 0.71120824062E+02 0.59860113289E+02 0.52310279347E+02
 0.48063574892E+02 0.47271076347E+02 0.53271847558E+02 0.59506841387E+02 0.69031273125E+02
 0.78349211892E+02 0.82612708362E+02 0.79149383172E+02 0.69561874689E+02 0.58452941464E+02
 0.50090350811E+02 0.47160692047E+02 0.49556814184E+02 0.54802497345E+02 0.59959836627E+02
 0.62626776619E+02 0.62384368404E+02 0.61016582124E+02 0.61196000497E+02 0.64203055698E+02
 0.70065025791E+02 0.78017613981E+02 0.84300010115E+02 0.84115991879E+02 0.76547816344E+02
 0.65742388049E+02 0.57004915473E+02 0.52176711319E+02 0.50197434420E+02 0.50462920508E+02
 0.55372833280E+02 0.58549146164E+02 0.64209571406E+02 0.70498797234E+02 0.73716849632E+02
 0.71453070931E+02 0.64480480738E+02 0.55891759420E+02 0.49366400657E+02 0.47383936050E+02
 0.50079502990E+02 0.55740356195E+02 0.61392300398E+02 0.65050319751E+02 0.67069647066E+02
 0.69488522587E+02 0.73354610571E+02 0.77224487980E+02 0.79135602456E+02 0.79237392577E+02
 0.77695079173E+02 0.73200495896E+02 0.65694805783E+02 0.58258750129E+02 0.53914161839E+02
 0.52715585361E+02 0.53168395403E+02 0.54022221625E+02 0.57100800980E+02 0.56541509458E+02
 0.57699160727E+02 0.60516452706E+02 0.62868755458E+02 0.62549295368E+02 0.58998691018E+02
 0.53698050915E+02 0.49416245578E+02 0.48425897190E+02 0.51539042243E+02 0.57661242345E+02
 0.64105240665E+02 0.69213042857E+02 0.73986551520E+02 0.81132293529E+02 0.89165285945E+02
 0.93349395612E+02 0.90235658933E+02 0.81279149972E+02 0.71031874651E+02 0.62228572184E+02
 0.55306174791E+02 0.51513171364E+02 0.51517279921E+02 0.53972098701E+02 0.56670665189E+02
 0.57734714159E+02 0.60294590635E+02 0.55995377849E+02 0.53312429919E+02 0.53666921423E+02
 0.56091510991E+02 0.58167661221E+02 0.58023356102E+02 0.55477508047E+02 0.52210315723E+02
 0.50743315606E+02 0.52637462535E+02 0.57760685665E+02 0.64090798971E+02 0.70299620597E+02
 0.77894289796E+02 0.89057428837E+02 0.10020400553E+03 0.10419249575E+03 0.96910662556E+02
 0.81464068375E+02 0.65407992219E+02 0.54103669614E+02 0.48240163673E+02 0.47470243553E+02
 0.51148801024E+02 0.57004469712E+02 0.61865420341E+02 0.63069755857E+02 0.64146355139E+02
 0.57100566902E+02 0.53054972783E+02 0.53737224453E+02 0.58008139662E+02 0.63454527984E+02
 0.66604828002E+02 0.65310518282E+02 0.61246457240E+02 0.58642818799E+02 0.60923574224E+02
 0.66959083007E+02 0.73295169393E+02 0.77605066390E+02 0.80963779519E+02 0.86253240817E+02
 0.91243889818E+02 0.90585452522E+02 0.81865113972E+02 0.68304303358E+02 0.56222582981E+02
 0.49651078539E+02 0.48602282155E+02 0.52288737150E+02 0.59098210118E+02 0.66290498560E+02
 0.70691829094E+02 0.69865496640E+02 0.72746059727E+02 0.62489993064E+02 0.56239932968E+02
 0.57284895817E+02 0.64736479889E+02 0.75481607965E+02 0.82522165924E+02 0.80871289811E+02
 0.71966340981E+02 0.62300230652E+02 0.57650646022E+02 0.58568094679E+02 0.62270480715E+02
 0.66983987476E+02 0.71989608417E+02 0.77780833335E+02 0.81774106306E+02 0.80248497593E+02
 0.72083200119E+02 0.60851033117E+02 0.52180044324E+02 0.48993508664E+02 0.51034070758E+02
 0.57391273301E+02 0.66207113081E+02 0.75266767719E+02 0.81233805677E+02 0.80533243955E+02
 0.80634719542E+02 0.68415277212E+02 0.60839360174E+02 0.62390100999E+02 0.73050290248E+02
 0.87994673348E+02 0.97736886788E+02 0.95112422866E+02 0.81466239790E+02 0.65217067679E+02
 0.54455232757E+02 0.51005787895E+02 0.52306936037E+02 0.56833538779E+02 0.62520374044E+02
 0.67527517021E+02 0.70000453375E+02 0.67986771996E+02 0.61929445882E+02 0.55306777873E+02
 0.51852701965E+02 0.53516562931E+02 0.59235511934E+02 0.67072579573E+02 0.75682458292E+02
 0.84542413743E+02 0.90655466256E+02 0.89696899830E+02 0.82739234498E+02 0.70965146340E+02
 0.63739401751E+02 0.65531143879E+02 0.76775541860E+02 0.92350701572E+02 0.10234696157E+03
 0.99029007223E+02 0.83533498689E+02 0.64712996880E+02 0.51496800946E+02 0.46224502427E+02
 0.46443106811E+02 0.50750139185E+02 0.56557035896E+02 0.61263592731E+02 0.62825458029E+02
 0.60791389702E+02 0.56982819622E+02 0.54328166960E+02 0.56303807129E+02 0.63566816649E+02
 0.72828315246E+02 0.80253850380E+02 0.85277265129E+02 0.89988783852E+02 0.93614828796E+02
 0.91701184750E+02 0.78138933795E+02 0.69593866215E+02 0.64465887166E+02 0.65799386207E+02
 0.73974509420E+02 0.85677595825E+02 0.93058671255E+02 0.89637472720E+02 0.76247122952E+02
 0.60297520667E+02 0.49210490169E+02 0.44818329463E+02 0.45384573240E+02 0.49952386734E+02
 0.56184363471E+02 0.61395257873E+02 0.62952483424E+02 0.60712366184E+02 0.57781413136E+02
 0.57718103535E+02 0.64012966418E+02 0.75809262149E+02 0.87064763516E+02 0.92213706357E+02
 0.91230109416E+02 0.88989569971E+02 0.87978435323E+02 0.85092554706E+02 0.71475683439E+02
 0.68041180430E+02 0.65736443416E+02 0.65703826693E+02 0.68309481713E+02 0.73018728723E+02
 0.75767221446E+02 0.72699879970E+02 0.64259291601E+02 0.55008731724E+02 0.49155741025E+02
 0.47414568308E+02 0.49310261141E+02 0.54304994684E+02 0.61141331249E+02 0.66978425787E+02
 0.68516065136E+02 0.65621812694E+02 0.62312347120E+02 0.63116781232E+02 0.71117287383E+02
 0.83980119362E+02 0.94435021042E+02 0.96170243600E+02 0.89675614385E+02 0.81505097262E+02
 0.76887610139E+02 0.74419580963E+02 0.68138216985E+02 0.70254989642E+02 0.70355781502E+02
 0.68107676489E+02 0.64872108827E+02 0.62191505774E+02 0.60100895894E+02 0.57589401647E+02
 0.54718013440E+02 0.52824166758E+02 0.52831397689E+02 0.54243272706E+02 0.57187981574E+02
 0.61663232464E+02 0.67843761569E+02 0.73290885745E+02 0.74556451081E+02 0.71349103629E+02
 0.67812175080E+02 0.68310391449E+02 0.74895972969E+02 0.84683222301E+02 0.91222709301E+02
 0.89168255404E+02 0.79796486930E+02 0.69986958866E+02 0.65486882319E+02 0.65732318898E+02
 0.69306218438E+02 0.76579793858E+02 0.78610552912E+02 0.73945393182E+02 0.65290239558E+02
 0.56894630937E+02 0.51367827131E+02 0.49619459136E+02 0.51313364402E+02 0.55798857930E+02
 0.61406886158E+02 0.65722750344E+02 0.67731360176E+02 0.69001970889E+02 0.71910910036E+02
 0.75221727006E+02 0.76049946233E+02 0.73910266592E+02 0.71784979641E+02 0.72576499761E+02
 0.76385111331E+02 0.80609436538E+02 0.81309122007E+02 0.75682117233E+02 0.65969877897E+02
 0.58204804606E+02 0.56803272749E+02 0.61303031187E+02 0.72159203388E+02 0.83305032795E+02
 0.86825722033E+02 0.80270842085E+02 0.67622909084E+02 0.55579419807E+02 0.48668564253E+02
 0.48162653403E+02 0.53642969586E+02 0.63596392961E+02 0.73785759331E+02 0.79154443720E+02
 0.78135103489E+02 0.73922287869E+02 0.71319164423E+02 0.71426201575E+02 0.72114863133E+02
 0.72622969540E+02 0.74367324124E+02 0.77664359370E+02 0.79651196856E+02 0.78107507890E+02
 0.72601693856E+02 0.64015265818E+02 0.55030409570E+02 0.50045499699E+02 0.51577792085E+02
 0.59773063415E+02 0.73173790451E+02 0.85243079032E+02 0.89008578304E+02 0.81866475170E+02
 0.68319977693E+02 0.56011195689E+02 0.50108379725E+02 0.51752601463E+02 0.60227004763E+02
 0.73092758097E+02 0.84653904198E+02 0.88654953222E+02 0.83531040631E+02 0.74001775486E+02
 0.66576394944E+02 0.64177053261E+02 0.65540435061E+02 0.70155808207E+02 0.78018485017E+02
 0.85628182705E+02 0.87536849844E+02 0.81558232649E+02 0.70492103678E+02 0.59073546490E+02
 0.50478918452E+02 0.46836071434E+02 0.49975143983E+02 0.59581802141E+02 0.70561158043E+02
 0.79934892859E+02 0.82431492415E+02 0.76223950367E+02 0.65397589528E+02 0.56647511450E+02
 0.54340572262E+02 0.59045629153E+02 0.69038078272E+02 0.80976878131E+02 0.89581577752E+02
 0.89635502864E+02 0.80605289400E+02 0.68009303362E+02 0.58868345542E+02 0.56227095703E+02
 0.59273014981E+02 0.68274939737E+02 0.81889901932E+02 0.93836844268E+02 0.96524690079E+02
 0.87831329947E+02 0.72997423307E+02 0.59461183573E+02 0.51101414512E+02 0.48241187291E+02
 0.51347378458E+02 0.59567938806E+02 0.65759326258E+02 0.70334253681E+02 0.70712501757E+02
 0.66369682421E+02 0.60415066741E+02 0.57522573814E+02 0.60761812142E+02 0.69657365779E+02
 0.79920636698E+02 0.87401005860E+02 0.89084906841E+02 0.83269750563E+02 0.71253403355E+02
 0.58348745677E+02 0.50261714932E+02 0.48980499873E+02 0.53941585273E+02 0.65625213451E+02
 0.82074079378E+02 0.96012759558E+02 0.99241313717E+02 0.90006217008E+02 0.74732750889E+02
 0.61823375733E+02 0.54931016817E+02 0.53024504980E+02 0.55088072858E+02 0.59868108712E+02
 0.61883299234E+02 0.61711650732E+02 0.60261271357E+02 0.57834620940E+02 0.56626178737E+02
 0.59513043365E+02 0.68740127839E+02 0.81463578659E+02 0.91150807785E+02 0.92972673450E+02
 0.86657186233E+02 0.74810373046E+02 0.60988377555E+02 0.49477808498E+02 0.43765750508E+02
 0.44349293877E+02 0.50583861363E+02 0.62084956545E+02 0.76891978290E+02 0.88870397877E+02
 0.91464780804E+02 0.83844934647E+02 0.72070864581E+02 0.63249558325E+02 0.59929666269E+02
 0.59936303359E+02 0.60927770014E+02 0.61589248402E+02 0.60814627132E+02 0.57555750048E+02
 0.55278154107E+02 0.54278035925E+02 0.55986171869E+02 0.62511978353E+02 0.75121867287E+02
 0.89371083654E+02 0.97561820996E+02 0.94940527447E+02 0.83116651793E+02 0.67656758547E+02
 0.53644032198E+02 0.44277831720E+02 0.41173999342E+02 0.43880474581E+02 0.50707140495E+02
 0.59861860653E+02 0.69613219717E+02 0.76430969832E+02 0.77011577094E+02 0.71920688725E+02
 0.65770138589E+02 0.62945909035E+02 0.64123523204E+02 0.66586296860E+02 0.67114836925E+02
 0.64636857024E+02 0.62307132992E+02 0.58441298506E+02 0.56595050946E+02 0.56423211347E+02
 0.58673822430E+02 0.65117268319E+02 0.76638535021E+02 0.88863092018E+02 0.94533138062E+02
 0.89634243871E+02 0.76529485964E+02 0.61417483003E+02 0.49419565023E+02 0.43123824165E+02
 0.43294181569E+02 0.48452453196E+02 0.55749833296E+02 0.62000931137E+02 0.65591564950E+02
 0.66182832635E+02 0.63930200341E+02 0.60691525860E+02 0.59430676597E+02 0.61496641225E+02
 0.66127431738E+02 0.70429021149E+02 0.71055959933E+02 0.67456932991E+02 0.65042385083E+02
 0.63404856972E+02 0.63619566145E+02 0.63941617503E+02 0.64234872655E+02 0.66592843905E+02
 0.72937571568E+02 0.80180995086E+02 0.82816702232E+02 0.77836870101E+02 0.67168006564E+02
 0.55867568192E+02 0.48041438014E+02 0.45995090327E+02 0.50163062576E+02 0.58596148444E+02
 0.66707019199E+02 0.70077281789E+02 0.67702909494E+02 0.62162399184E+02 0.56909087449E+02
 0.54210347228E+02 0.55474008600E+02 0.60254234228E+02 0.66448232278E+02 0.71118894980E+02
 0.71825817956E+02 0.68856254193E+02 0.67582095542E+02 0.69556951474E+02 0.72773795503E+02
 0.73472416358E+02 0.70581544998E+02 0.67159497724E+02 0.66529927515E+02 0.68055138857E+02
 0.68020345697E+02 0.64427329330E+02 0.58223313687E+02 0.52356420135E+02 0.49698624720E+02
 0.52235304759E+02 0.60487536724E+02 0.71936662494E+02 0.80522058795E+02 0.80973687006E+02
 0.73331255965E+02 0.62733095284E+02 0.54838941718E+02 0.52062354527E+02 0.54566267805E+02
 0.60802857851E+02 0.67180766165E+02 0.70671822582E+02 0.70597112663E+02 0.68647390343E+02
 0.67573777462E+02 0.72491284580E+02 0.78241360562E+02 0.79350397076E+02 0.73984304432E+02
 0.65938164553E+02 0.60082830252E+02 0.57380064722E+02 0.55852435218E+02 0.54193194856E+02
 0.52408670705E+02 0.51777311664E+02 0.54063263504E+02 0.60279441879E+02 0.70718642756E+02
 0.82746162917E+02 0.90199423918E+02 0.88073924282E+02 0.77330608042E+02 0.64378009517E+02
 0.55679009981E+02 0.53333102410E+02 0.56647719557E+02 0.63280274011E+02 0.68805048516E+02
 0.70275565742E+02 0.68520406671E+02 0.66637659892E+02 0.63571602036E+02 0.69674390362E+02
 0.76555293931E+02 0.78266587689E+02 0.72521265455E+02 0.62938733877E+02 0.54829815524E+02
 0.50208123253E+02 0.48332390132E+02 0.48506692338E+02 0.50309725075E+02 0.53985002377E+02
 0.59999454823E+02 0.67930863043E+02 0.77290877424E+02 0.86276250292E+02 0.90492365309E+02
 0.86588934350E+02 0.76097776335E+02 0.64874465007E+02 0.58190776610E+02 0.57088607737E+02
 0.60494066781E+02 0.65902324229E+02 0.69136619689E+02 0.67982454877E+02 0.64306171623E+02
 0.61923292528E+02 0.56969535360E+02 0.62992275694E+02 0.70042987457E+02 0.72825578993E+02
 0.68833499125E+02 0.60577890147E+02 0.52552031974E+02 0.47243659362E+02 0.45363160387E+02
 0.46820766263E+02 0.51008230329E+02 0.57663746099E+02 0.66013244472E+02 0.73716142396E+02
 0.79178581175E+02 0.82322471627E+02 0.82295267650E+02 0.77911599342E+02 0.70830323994E+02
 0.64807959200E+02 0.62422475697E+02 0.63017674551E+02 0.65265878942E+02 0.67449635070E+02
 0.66911578202E+02 0.62868716697E+02 0.57713682399E+02 0.55192767220E+02 0.50799348690E+02
 0.57127284556E+02 0.64774052546E+02 0.69416409234E+02 0.68149787889E+02 0.62000572927E+02
 0.54397059984E+02 0.48327397926E+02 0.45856332948E+02 0.47465187439E+02 0.52552843723E+02
 0.60511686816E+02 0.69354699235E+02 0.75459810779E+02 0.76649067571E+02 0.74241913694E+02
 0.70867010697E+02 0.67611033086E+02 0.65739045479E+02 0.66843431392E+02 0.70161683632E+02
 0.72662768189E+02 0.72220109117E+02 0.68958910632E+02 0.63536263184E+02 0.56646780557E+02
 0.50671480700E+02 0.48469633442E+02 0.47314789008E+02 0.55223477634E+02 0.65212578165E+02
 0.72855244351E+02 0.74017138177E+02 0.68418364489E+02 0.59620943035E+02 0.51981186122E+02
 0.47961733621E+02 0.48552077756E+02 0.53104038549E+02 0.60481559899E+02 0.68027410678E+02
 0.71835207262E+02 0.70107232101E+02 0.65029157450E+02 0.60852747727E+02 0.60078350639E+02
 0.64046485930E+02 0.72870565480E+02 0.82431607704E+02 0.86634830433E+02 0.82573885421E+02
 0.72610232226E+02 0.61458311059E+02 0.52027525588E+02 0.45636329982E+02 0.43796463909E+02
 0.47053442347E+02 0.57072434137E+02 0.70441485910E+02 0.81366334713E+02 0.84027516261E+02
 0.77452050096E+02 0.66151767077E+02 0.55933714897E+02 0.49966299871E+02 0.49095693588E+02
 0.52520494531E+02 0.58284578097E+02 0.63624522385E+02 0.65298733788E+02 0.62279368221E+02
 0.57188536672E+02 0.54380670762E+02 0.56480486803E+02 0.65506271707E+02 0.80578175530E+02
 0.94899181848E+02 0.99900469249E+02 0.92338806871E+02 0.76817278867E+02 0.61161946488E+02
 0.49953632343E+02 0.43564840515E+02 0.42475404137E+02 0.49227019505E+02 0.60314622374E+02
 0.75431579705E+02 0.88066084207E+02 0.91270234336E+02 0.83628544259E+02 0.70280455794E+02
 0.58084936949E+02 0.50882388323E+02 0.49190553482E+02 0.52172369289E+02 0.56982976537E+02
 0.60752461015E+02 0.61183540330E+02 0.58169061870E+02 0.54292812918E+02 0.53174400671E+02
 0.57201775742E+02 0.68368577921E+02 0.85208286825E+02 0.10021129878E+03 0.10440281131E+03
 0.94890574258E+02 0.77345620146E+02 0.60683520301E+02 0.49773245234E+02 0.44327638386E+02
 0.44052566414E+02 0.51824433851E+02 0.61424305998E+02 0.74955796282E+02 0.86530924084E+02
 0.89430360515E+02 0.82023593195E+02 0.69104456044E+02 0.57366303322E+02 0.50622173738E+02
 0.49566423994E+02 0.53302563609E+02 0.59060745083E+02 0.63121689533E+02 0.63401824906E+02
 0.60822567623E+02 0.58196357460E+02 0.58113815398E+02 0.62253035504E+02 0.71401496717E+02
 0.84280211037E+02 0.94992907473E+02 0.96583392455E+02 0.87250406765E+02 0.72201556978E+02
 0.58901077653E+02 0.50825190940E+02 0.47110600026E+02 0.47348558986E+02 0.53771608113E+02
 0.59402142102E+02 0.68220023986E+02 0.76328606093E+02 0.78533917296E+02 0.73158039199E+02
 0.63526745536E+02 0.54798857416E+02 0.50079016469E+02 0.50720948531E+02 0.56623255421E+02
 0.64764818925E+02 0.70530492414E+02 0.71479260907E+02 0.69274897646E+02 0.67592896974E+02
 0.68718977780E+02 0.71843448330E+02 0.75772637062E+02 0.80156091074E+02 0.83045313264E+02
 0.80999501095E+02 0.73326227378E+02 0.63714654668E+02 0.56484227746E+02 0.52694849891E+02
 0.51139600493E+02 0.51374103256E+02 0.55575445653E+02 0.56373583106E+02 0.59493041096E+02
 0.63561624106E+02 0.65403130578E+02 0.63232040669E+02 0.58256288713E+02 0.53234114942E+02
 0.50706564528E+02 0.52873341666E+02 0.60543651632E+02 0.70712124898E+02 0.78169738801E+02