unknown system                          
  0.81069619563574635     
     8.000000    0.000000    0.000000
     0.000000    8.000000    0.000000
     0.000000    0.000000    8.000000
   H 
   512
Direct
  0.500526  0.072273  0.766704
  0.104345  0.549733  0.373076
  0.955774  0.957688  0.473396
  0.561022  0.181027  0.243602
  0.602112  0.597818  0.307240
  0.779327  0.877696  0.032190
  0.972955  0.635301  0.009532
  0.671356  0.971775  0.020847
  0.003033  0.113021  0.216645
  0.718777  0.121039  0.643615
  0.484163  0.913234  0.242836
  0.883036  0.067084  0.656664
  0.724044  0.220502  0.509493
  0.052680  0.014872  0.803391
  0.957887  0.152344  0.451046
  0.895466  0.050607  0.918945
  0.663029  0.415963  0.805041
  0.178214  0.471880  0.884354
  0.883926  0.988894  0.794290
  0.149117  0.095451  0.299477
  0.336630  0.563413  0.528815
  0.188978  0.195231  0.565907
  0.010380  0.178913  0.760397
  0.858150  0.287484  0.849780
  0.475842  0.410187  0.801147
  0.859311  0.731186  0.298592
  0.638731  0.695266  0.720966
  0.871294  0.606046  0.401315
  0.236639  0.048046  0.501879
  0.972726  0.544850  0.452767
  0.163770  0.932274  0.585071
  0.057204  0.050062  0.107892
  0.961183  0.088937  0.014406
  0.871016  0.817805  0.991564
  0.666506  0.842870  0.249635
  0.122633  0.098284  0.962472
  0.639815  0.378632  0.457770
  0.992053  0.676491  0.497956
  0.907298  0.586999  0.535089
  0.990286  0.209826  0.993679
  0.833835  0.599124  0.224656
  0.389774  0.545190  0.294072
  0.768481  0.733600  0.399141
  0.205412  0.383362  0.171682
  0.942042  0.494743  0.346407
  0.578133  0.474471  0.717106
  0.967710  0.183761  0.098351
  0.785512  0.581103  0.992140
  0.802529  0.022861  0.035786
  0.954584  0.430565  0.440729
  0.773577  0.054582  0.298147
  0.921948  0.821183  0.304114
  0.949527  0.813261  0.725158
  0.684206  0.845001  0.420073
  0.957534  0.764333  0.031371
  0.234788  0.641769  0.219169
  0.185118  0.202429  0.812946
  0.095934  0.978405  0.915871
  0.618001  0.864148  0.753122
  0.162617  0.961518  0.268170
  0.894091  0.726773  0.434206
  0.232804  0.345630  0.264108
  0.095313  0.554424  0.916448
  0.272015  0.825520  0.977703
  0.196094  0.579775  0.293024
  0.225547  0.052704  0.018732
  0.732375  0.879966  0.518774
  0.999712  0.926552  0.608572
  0.051651  0.389092  0.658443
  0.858248  0.942588  0.559240
  0.018258  0.815886  0.511693
  0.065646  0.330781  0.216694
  0.320882  0.109547  0.770082
  0.493158  0.216663  0.829243
  0.756787  0.126586  0.428355
  0.219531  0.081425  0.156086
  0.846333  0.198155  0.354149
  0.191197  0.235535  0.414803
  0.585984  0.998242  0.790587
  0.356780  0.158468  0.057114
  0.256588  0.137700  0.900904
  0.010903  0.123172  0.890922
  0.230965  0.280399  0.112706
  0.381235  0.839011  0.001102
  0.425043  0.087304  0.836785
  0.787782  0.110695  0.527988
  0.352275  0.331451  0.151259
  0.130643  0.622908  0.823513
  0.956328  0.510555  0.973058
  0.815194  0.277397  0.250781
  0.582802  0.234080  0.354951
  0.126188  0.843732  0.220356
  0.234762  0.702717  0.670028
  0.364558  0.546908  0.954954
  0.108386  0.722783  0.705039
  0.895956  0.921066  0.687941
  0.309432  0.617255  0.651805
  0.050054  0.330700  0.408900
  0.102267  0.196785  0.052593
  0.753719  0.284601  0.787655
  0.684526  0.358235  0.328135
  0.737407  0.392501  0.562371
  0.133349  0.429185  0.753070
  0.117961  0.133191  0.723483
  0.043683  0.731969  0.925848
  0.124248  0.700861  0.164111
  0.177588  0.434820  0.037145
  0.107966  0.281707  0.103003
  0.008513  0.267101  0.502156
  0.123254  0.718694  0.573961
  0.420426  0.541550  0.726537
  0.854004  0.858707  0.866903
  0.946157  0.370609  0.231543
  0.438523  0.587351  0.092951
  0.016768  0.497063  0.239992
  0.487978  0.542363  0.206908
  0.613961  0.619369  0.609918
  0.579840  0.452628  0.264266
  0.141382  0.819555  0.956455
  0.997979  0.863135  0.238290
  0.049878  0.596144  0.167734
  0.191067  0.846570  0.751068
  0.309159  0.244498  0.589418
  0.207460  0.530991  0.557269
  0.686084  0.478299  0.329896
  0.312419  0.735908  0.434055
  0.946645  0.718127  0.860811
  0.026048  0.924512  0.397627
  0.715895  0.087190  0.098817
  0.069339  0.204215  0.250358
  0.179316  0.120115  0.422955
  0.131837  0.113127  0.844674
  0.010996  0.448935  0.790857
  0.391315  0.663974  0.500013
  0.367953  0.219265  0.690444
  0.371725  0.080093  0.378178
  0.228836  0.374846  0.681425
  0.329986  0.317057  0.724347
  0.010635  0.919183  0.752049
  0.422841  0.604659  0.596067
  0.259509  0.732485  0.549076
  0.260520  0.595590  0.858768
  0.340388  0.094139  0.220664
  0.541816  0.197443  0.119937
  0.021321  0.761590  0.144679
  0.439535  0.465411  0.067012
  0.304605  0.484006  0.623790
  0.361539  0.590523  0.823821
  0.228850  0.629120  0.495490
  0.468850  0.209823  0.708106
  0.431345  0.338688  0.609946
  0.553476  0.435056  0.045474
  0.938123  0.687654  0.172745
  0.618528  0.315170  0.217364
  0.222768  0.211859  0.261185
  0.388844  0.414974  0.307615
  0.454479  0.449650  0.553048
  0.360017  0.440331  0.440459
  0.222461  0.897240  0.157378
  0.101771  0.311037  0.551514
  0.828167  0.369185  0.140750
  0.352200  0.630058  0.215877
  0.013933  0.802372  0.401892
  0.363317  0.310998  0.267775
  0.368335  0.716531  0.143357
  0.048233  0.424539  0.927784
  0.103985  0.589990  0.474318
  0.151754  0.670097  0.934124
  0.527008  0.516376  0.365946
  0.304390  0.179195  0.341631
  0.367172  0.679604  0.024945
  0.846382  0.840674  0.452427
  0.203643  0.389993  0.565686
  0.851364  0.459002  0.078185
  0.328549  0.205093  0.195259
  0.609309  0.763656  0.360395
  0.291670  0.336918  0.378746
  0.460203  0.822346  0.902994
  0.694698  0.904249  0.122634
  0.080397  0.410609  0.328873
  0.497412  0.660767  0.252483
  0.970547  0.670170  0.750566
  0.049101  0.313115  0.750699
  0.539101  0.966064  0.889342
  0.158825  0.994298  0.142531
  0.220599  0.014141  0.759386
  0.057690  0.006355  0.307611
  0.267273  0.938594  0.646947
  0.411500  0.549680  0.410997
  0.195538  0.843885  0.438936
  0.080695  0.825847  0.661803
  0.438982  0.153489  0.284746
  0.051695  0.031955  0.580389
  0.720683  0.225650  0.334333
  0.197346  0.328411  0.462148
  0.967930  0.236477  0.341937
  0.314295  0.852617  0.751152
  0.082754  0.172633  0.392618
  0.539391  0.797270  0.657043
  0.186944  0.261173  0.674204
  0.464084  0.091247  0.070738
  0.257672  0.463968  0.451221
  0.361183  0.932929  0.338113
  0.808788  0.362904  0.690580
  0.443003  0.328540  0.434530
  0.258942  0.451658  0.803354
  0.680273  0.673775  0.380635
  0.630557  0.374737  0.938971
  0.300803  0.339452  0.857255
  0.803618  0.218230  0.129032
  0.826507  0.148477  0.018898
  0.390018  0.865585  0.133895
  0.035520  0.395422  0.550088
  0.203775  0.445684  0.361087
  0.219225  0.021636  0.879906
  0.168587  0.054347  0.611687
  0.277363  0.472804  0.276044
  0.562964  0.007994  0.292894
  0.727079  0.327184  0.166837
  0.529811  0.026227  0.572846
  0.116443  0.716033  0.446167
  0.604802  0.961369  0.491840
  0.127135  0.600073  0.614564
  0.888205  0.853398  0.150099
  0.122935  0.859904  0.328133
  0.601685  0.458188  0.592199
  0.719036  0.475921  0.938451
  0.695333  0.406034  0.056030
  0.611063  0.933123  0.349894
  0.276890  0.240398  0.976507
  0.321972  0.563048  0.085963
  0.917240  0.331594  0.757180
  0.684238  0.206908  0.222187
  0.751080  0.993005  0.158666
  0.117422  0.844216  0.528932
  0.218611  0.971107  0.386056
  0.809190  0.506375  0.363220
  0.280003  0.788179  0.122735
  0.352521  0.690712  0.738623
  0.398903  0.420764  0.972554
  0.566171  0.815885  0.217139
  0.420772  0.281094  0.983689
  0.234338  0.759807  0.237636
  0.379167  0.477675  0.197136
  0.333416  0.752906  0.308929
  0.130618  0.964386  0.704973
  0.003283  0.888931  0.104174
  0.560423  0.845059  0.101008
  0.966234  0.856503  0.857531
  0.475912  0.268571  0.230141
  0.950635  0.278569  0.625904
  0.292363  0.147826  0.478821
  0.667127  0.538178  0.217678
  0.287743  0.929220  0.533689
  0.236130  0.348741  0.938903
  0.013445  0.861089  0.965211
  0.204391  0.546446  0.155092
  0.231636  0.165084  0.071046
  0.262724  0.057616  0.312064
  0.775104  0.902472  0.646830
  0.582080  0.804429  0.492669
  0.428746  0.192871  0.566954
  0.465975  0.068022  0.194019
  0.105535  0.323041  0.983752
  0.312328  0.971143  0.211875
  0.344115  0.990078  0.447373
  0.721729  0.247464  0.916039
  0.474037  0.328035  0.084481
  0.609212  0.336790  0.593116
  0.557784  0.331893  0.794456
  0.751769  0.442429  0.229363
  0.493624  0.187381  0.433178
  0.598096  0.305297  0.070227
  0.519548  0.910285  0.002978
  0.609543  0.490666  0.870933
  0.124697  0.973456  0.468441
  0.560793  0.470925  0.490205
  0.941903  0.353957  0.334733
  0.640414  0.098607  0.554102
  0.433391  0.224528  0.122603
  0.202149  0.317343  0.789272
  0.616142  0.163093  0.710656
  0.486143  0.407105  0.186198
  0.549217  0.182253  0.004402
  0.090342  0.153442  0.533083
  0.619808  0.163348  0.460769
  0.086571  0.218398  0.646244
  0.090482  0.663498  0.038041
  0.429580  0.188488  0.937610
  0.515979  0.678309  0.662653
  0.280845  0.713010  0.974145
  0.577598  0.570899  0.122049
  0.523504  0.641671  0.425294
  0.761407  0.306456  0.432557
  0.466949  0.779292  0.042764
  0.272045  0.587849  0.377813
  0.358187  0.446654  0.867395
  0.432751  0.873206  0.418725
  0.729167  0.803170  0.141156
  0.831350  0.696066  0.025419
  0.620205  0.704825  0.514251
  0.247940  0.815134  0.617400
  0.294364  0.440212  0.117691
  0.360906  0.838800  0.854687
  0.600556  0.083760  0.176394
  0.301961  0.934550  0.064617
  0.605665  0.907199  0.611354
  0.952811  0.577128  0.102676
  0.486345  0.887301  0.533948
  0.360333  0.850981  0.252477
  0.673924  0.490256  0.455139
  0.347975  0.059650  0.955630
  0.442083  0.958954  0.774119
  0.692585  0.969518  0.715783
  0.543315  0.690382  0.986168
  0.462460  0.087494  0.492636
  0.378228  0.721885  0.631842
  0.650481  0.046800  0.925925
  0.665262  0.538912  0.022507
  0.326989  0.085721  0.607607
  0.435366  0.999218  0.303244
  0.731489  0.766760  0.512464
  0.462345  0.956484  0.114947
  0.682734  0.992451  0.262851
  0.751158  0.952691  0.370034
  0.461358  0.732307  0.751182
  0.413613  0.099291  0.670005
  0.502977  0.339152  0.321622
  0.770966  0.025274  0.802883
  0.578364  0.984812  0.168755
  0.815966  0.900480  0.243016
  0.706962  0.516521  0.605261
  0.797971  0.216027  0.674781
  0.639708  0.234565  0.831357
  0.401517  0.832138  0.672820
  0.476277  0.749765  0.346149
  0.512538  0.380651  0.924506
  0.423563  0.955574  0.951997
  0.324124  0.329216  0.037357
  0.534659  0.085788  0.385376
  0.529926  0.176172  0.597013
  0.787424  0.775030  0.652008
  0.336662  0.368955  0.565325
  0.499524  0.308891  0.523383
  0.569010  0.270663  0.934820
  0.780161  0.456107  0.775225
  0.332271  0.207691  0.845429
  0.902868  0.220196  0.700078
  0.624654  0.429467  0.153164
  0.152691  0.239632  0.919791
  0.432710  0.764560  0.462487
  0.725073  0.564848  0.733939
  0.472062  0.473946  0.663607
  0.248442  0.708736  0.771252
  0.860983  0.615348  0.921327
  0.490416  0.525478  0.873309
  0.688655  0.391029  0.679596
  0.743849  0.522968  0.125002
  0.861673  0.742353  0.749379
  0.463842  0.619703  0.950736
  0.887262  0.507702  0.817311
  0.741564  0.703043  0.236598
  0.589641  0.789624  0.922194
  0.418503  0.304146  0.840229
  0.608913  0.740309  0.091285
  0.636370  0.591742  0.458992
  0.633505  0.224746  0.610265
  0.162405  0.588740  0.719931
  0.067742  0.468928  0.040408
  0.407442  0.993434  0.558114
  0.158663  0.760345  0.061785
  0.027890  0.519033  0.561517
  0.476140  0.622409  0.791158
  0.509772  0.337745  0.687836
  0.247682  0.136001  0.684339
  0.442178  0.714662  0.876428
  0.316267  0.853945  0.442896
  0.572621  0.040901  0.042555
  0.675453  0.803434  0.631910
  0.516503  0.683075  0.131041
  0.186792  0.761333  0.859334
  0.867416  0.701177  0.568213
  0.547705  0.546259  0.997379
  0.642496  0.876589  0.966967
  0.650264  0.116373  0.323629
  0.760057  0.823432  0.298954
  0.780057  0.639368  0.480422
  0.666845  0.045317  0.437487
  0.003806  0.034761  0.701242
  0.655769  0.644309  0.985747
  0.596723  0.573487  0.714495
  0.133140  0.711222  0.318805
  0.535994  0.857664  0.358573
  0.927944  0.987068  0.311536
  0.020245  0.981204  0.197193
  0.801349  0.285866  0.582132
  0.716068  0.000072  0.579292
  0.608089  0.686257  0.237681
  0.598259  0.281922  0.474375
  0.596559  0.604926  0.838544
  0.872404  0.909673  0.368874
  0.937887  0.606446  0.286507
  0.865097  0.484062  0.225447
  0.892107  0.173706  0.550085
  0.729394  0.569758  0.850601
  0.908090  0.052437  0.524342
  0.792016  0.521462  0.502972
  0.511455  0.723208  0.567650
  0.765608  0.091115  0.913719
  0.909091  0.110933  0.794308
  0.758680  0.670651  0.732185
  0.930973  0.225372  0.214470
  0.451336  0.787798  0.205709
  0.807162  0.359864  0.992839
  0.674935  0.107914  0.790297
  0.804080  0.408033  0.455020
  0.377420  0.414047  0.733838
  0.980063  0.534792  0.685759
  0.500612  0.972859  0.433544
  0.869974  0.178713  0.886637
  0.871167  0.612375  0.650761
  0.047262  0.572533  0.756138
  0.280558  0.528795  0.729111
  0.928482  0.407991  0.872786
  0.744669  0.827077  0.911490
  0.963937  0.365004  0.038544
  0.240958  0.658040  0.082600
  0.790427  0.883883  0.758482
  0.112093  0.444841  0.448699
  0.703887  0.686677  0.878520
  0.331456  0.277653  0.486169
  0.504550  0.590285  0.526157
  0.713752  0.759024  0.016250
  0.812957  0.371812  0.334077
  0.343841  0.964913  0.815955
  0.055791  0.757175  0.805156
  0.503944  0.855955  0.792501
  0.986977  0.582188  0.886785
  0.387757  0.815766  0.558906
  0.077329  0.411955  0.143873
  0.116607  0.873736  0.077842
  0.300949  0.943803  0.936188
  0.014040  0.739944  0.280076
  0.771081  0.131535  0.213769
  0.488955  0.921384  0.674700
  0.371089  0.975154  0.673051
  0.583031  0.036110  0.674068
  0.575524  0.136466  0.875716
  0.210102  0.902409  0.847918
  0.670407  0.199829  0.094100
  0.351810  0.043027  0.093398
  0.902569  0.833282  0.562252
  0.796464  0.000932  0.461148
  0.790704  0.037486  0.678039
  0.887133  0.965938  0.178460
  0.475851  0.070568  0.942958
  0.877229  0.103830  0.232921
  0.120842  0.146887  0.158503
  0.682547  0.142171  0.976757
  0.715947  0.283641  0.028456
  0.913618  0.426899  0.676862
  0.399761  0.219767  0.393519
  0.180631  0.943136  0.016471
  0.795826  0.164340  0.786337
  0.891707  0.069162  0.109202
  0.953983  0.310220  0.132558
  0.958449  0.311168  0.934514
  0.877077  0.064564  0.392049
  0.879147  0.261744  0.443508
  0.984638  0.143816  0.628984
  0.651684  0.287566  0.716566
  0.029796  0.250383  0.865272
  0.725971  0.658146  0.593165
  0.849984  0.468479  0.950666
  0.966258  0.461556  0.126632
  0.828661  0.746756  0.154592
  0.538860  0.410619  0.383266
  0.818562  0.504842  0.662993
  0.868116  0.607426  0.788563
  0.850021  0.259969  0.022729
  0.682082  0.920963  0.866223
  0.773135  0.371803  0.869609
  0.274348  0.459966  0.984949
  0.994634  0.118041  0.328361
  0.958127  0.755144  0.630181
  0.920594  0.346411  0.546646
  0.397722  0.657652  0.348268
  0.144963  0.475200  0.644367
  0.124194  0.560856  0.072444
  0.010062  0.647068  0.616293
  0.144769  0.476353  0.239623
  0.889759  0.453466  0.542824
  0.759703  0.603730  0.322811
  0.045384  0.980847  0.016669
  0.594521  0.734039  0.824128
  0.091751  0.352106  0.845667
  0.703207  0.784953  0.788977
  0.238388  0.575093  0.981400
  0.816039  0.720134  0.883931
  0.962083  0.959367  0.908430
  0.221237  0.702240  0.379331
  0.084569  0.867867  0.840924
  0.800521  0.967484  0.913630
  0.253030  0.872676  0.301389
  0.900386  0.935362  0.035633
  0.008267  0.675000  0.381269
  0.691062  0.651447  0.120264
  0.056237  0.059508  0.460401
  0.066284  0.612783  0.271394
  0.138628  0.288290  0.322360
  0.818533  0.610645  0.102956
  0.308603  0.714894  0.873409

   56   56   56
 0.49437276458E+03 0.60098745675E+03 0.69824870327E+03 0.72956459288E+03 0.67964477894E+03
 0.58598588631E+03 0.50254807692E+03 0.45817678076E+03 0.45529310936E+03 0.48916910916E+03
 0.53578626955E+03 0.56865463006E+03 0.57207013472E+03 0.54379824305E+03 0.49721270309E+03
 0.45679047344E+03 0.43758519906E+03 0.43609238034E+03 0.44135663437E+03 0.44274256605E+03
 0.43513352859E+03 0.42152269873E+03 0.40891703135E+03 0.40211310775E+03 0.39857682976E+03
 0.39407059801E+03 0.38901000159E+03 0.38572997297E+03 0.38670358490E+03 0.39381080171E+03
 0.40683623110E+03 0.42378404854E+03 0.44079851878E+03 0.46132728612E+03 0.49603498538E+03
 0.55567515349E+03 0.62916927725E+03 0.67480879732E+03 0.65262669595E+03 0.56805252530E+03
 0.47364834559E+03 0.42363428005E+03 0.43239259090E+03 0.48633822528E+03 0.55024257710E+03
 0.57870987285E+03 0.55302575516E+03 0.49543442542E+03 0.44359943151E+03 0.41524132442E+03
 0.40470054252E+03 0.40117759852E+03 0.39636496393E+03 0.39144479643E+03 0.39634503979E+03
 0.42502372620E+03 0.46027832921E+03 0.52103655015E+03 0.58141346914E+03 0.60392715010E+03
 0.57539163704E+03 0.51714092635E+03 0.46155739675E+03 0.42792413894E+03 0.42633044263E+03
 0.45932628039E+03 0.51813380876E+03 0.58416185604E+03 0.62328502202E+03 0.60865073290E+03
 0.54819866429E+03 0.48164053223E+03 0.44559006535E+03 0.44394418028E+03 0.46209022505E+03
 0.47857342540E+03 0.47403754987E+03 0.44786795636E+03 0.41600565131E+03 0.39287777855E+03
 0.38320323034E+03 0.38425269776E+03 0.38906270010E+03 0.39388531964E+03 0.40081881066E+03
 0.41439857584E+03 0.43973301282E+03 0.47267321819E+03 0.49745764849E+03 0.50780465320E+03
 0.51649891108E+03 0.53725734852E+03 0.56538575262E+03 0.57549642858E+03 0.54551506410E+03
 0.48268046468E+03 0.42338654525E+03 0.40297925967E+03 0.43197377480E+03 0.50436706823E+03
 0.58194401626E+03 0.61387770960E+03 0.57944287671E+03 0.50555078185E+03 0.43838407882E+03
 0.40213475392E+03 0.39190902536E+03 0.39617948321E+03 0.40313405744E+03 0.40717549859E+03
 0.41132960807E+03 0.42509180206E+03 0.45005802058E+03 0.45739923260E+03 0.47556608956E+03
 0.48712999059E+03 0.48188367344E+03 0.46391735571E+03 0.44303807418E+03 0.42920815134E+03
 0.43513615712E+03 0.47038445103E+03 0.54086980094E+03 0.63195604475E+03 0.69666714737E+03
 0.69029769175E+03 0.61527436001E+03 0.52333866662E+03 0.46969243690E+03 0.46887445911E+03
 0.50103948830E+03 0.53141683600E+03 0.52742952784E+03 0.48680430671E+03 0.43657223344E+03
 0.40388682084E+03 0.39588926554E+03 0.40746986634E+03 0.42578235347E+03 0.43900717529E+03
 0.44673240013E+03 0.45802319679E+03 0.48315970863E+03 0.51712001759E+03 0.53815152936E+03
 0.53438288092E+03 0.51919767751E+03 0.51241048520E+03 0.51210524409E+03 0.50125086364E+03
 0.46964415001E+03 0.42460290097E+03 0.38912485330E+03 0.38526316471E+03 0.42288509923E+03
 0.49668437201E+03 0.57183476073E+03 0.60162798054E+03 0.56737201057E+03 0.49570680098E+03
 0.43224306864E+03 0.40227171647E+03 0.40331367091E+03 0.42419959537E+03 0.45036934335E+03
 0.46975768107E+03 0.47153445274E+03 0.45937472248E+03 0.47368147051E+03 0.42984530802E+03
 0.41363054534E+03 0.41615116071E+03 0.42874203723E+03 0.44455010767E+03 0.45915068568E+03
 0.46826819831E+03 0.47753671421E+03 0.50410098222E+03 0.56857301787E+03 0.66103632779E+03
 0.73104780638E+03 0.72662550316E+03 0.64608863598E+03 0.54440222141E+03 0.48380584264E+03
 0.48520536943E+03 0.52657858443E+03 0.56549374886E+03 0.56220975735E+03 0.51406781993E+03
 0.45528871282E+03 0.42146573740E+03 0.42127999068E+03 0.44677124893E+03 0.47855515602E+03
 0.49645927381E+03 0.49766598552E+03 0.49574610378E+03 0.50587953125E+03 0.52494123650E+03
 0.53313928117E+03 0.51877104410E+03 0.49441447316E+03 0.47982559553E+03 0.47438087976E+03
 0.46361082898E+03 0.43937628539E+03 0.40616133098E+03 0.38027240777E+03 0.37997498357E+03
 0.41276560554E+03 0.47204343195E+03 0.53165183957E+03 0.55560286247E+03 0.52921475148E+03
 0.47369575171E+03 0.42606953261E+03 0.40900020043E+03 0.42602025953E+03 0.47010304753E+03
 0.52938104380E+03 0.57541102134E+03 0.57833143635E+03 0.53471219319E+03 0.51431803780E+03
 0.42607758425E+03 0.38373916111E+03 0.38066252079E+03 0.40603415074E+03 0.45215266042E+03
 0.50054139383E+03 0.52853009866E+03 0.53289372053E+03 0.53636084010E+03 0.57091459151E+03
 0.63694723281E+03 0.68987111909E+03 0.68265703375E+03 0.61113820631E+03 0.52205834405E+03
 0.47002147868E+03 0.47342613187E+03 0.51432044286E+03 0.55356278103E+03 0.55273078754E+03
 0.50917856435E+03 0.45672702274E+03 0.43082542542E+03 0.44003012497E+03 0.47569371815E+03
 0.51453115295E+03 0.53235611315E+03 0.52564441893E+03 0.50937703924E+03 0.49903423758E+03
 0.49572560335E+03 0.48793776696E+03 0.46930008043E+03 0.45086950194E+03 0.44723922823E+03
 0.45480088036E+03 0.46010632341E+03 0.45112507493E+03 0.42723280234E+03 0.40160681196E+03
 0.39291241455E+03 0.41172670870E+03 0.45232751861E+03 0.49538040234E+03 0.51579553464E+03
 0.50096406886E+03 0.46277055596E+03 0.42765139732E+03 0.41767111977E+03 0.44442995636E+03
 0.51114081995E+03 0.60500938491E+03 0.68150491671E+03 0.69046394728E+03 0.62123110066E+03
 0.53914859817E+03 0.42714074476E+03 0.36922227505E+03 0.36229760206E+03 0.39634013855E+03
 0.46276429356E+03 0.53280601259E+03 0.57041538744E+03 0.56550856094E+03 0.54374215762E+03
 0.54149716588E+03 0.56901549922E+03 0.59519709414E+03 0.58504998250E+03 0.53287725916E+03
 0.47000309689E+03 0.43453497494E+03 0.43824766714E+03 0.47143799624E+03 0.50513171698E+03
 0.50864121256E+03 0.47886643805E+03 0.44208473081E+03 0.42661402142E+03 0.44081998559E+03
 0.47673588321E+03 0.51306236383E+03 0.52835813622E+03 0.51975034272E+03 0.49971927610E+03
 0.47872117674E+03 0.45899221908E+03 0.43824338547E+03 0.41827934810E+03 0.41091020201E+03
 0.42505816794E+03 0.45721475339E+03 0.49164055200E+03 0.50480071965E+03 0.48584054314E+03
 0.44960970508E+03 0.42242110878E+03 0.42188584069E+03 0.44856212763E+03 0.48584474293E+03
 0.51187125290E+03 0.51087869663E+03 0.48171183688E+03 0.44462583206E+03 0.42803138386E+03
 0.44982971029E+03 0.52191432575E+03 0.63261842593E+03 0.72790618642E+03 0.74527371377E+03
 0.66762475049E+03 0.53192909382E+03 0.42273686030E+03 0.36152469770E+03 0.35126868895E+03
 0.38533521981E+03 0.45423519311E+03 0.52670103578E+03 0.56326265116E+03 0.55101544952E+03
 0.51533058921E+03 0.49187557493E+03 0.49240483168E+03 0.49949107085E+03 0.49055438778E+03
 0.45872712587E+03 0.42023708934E+03 0.39749030453E+03 0.40129139685E+03 0.42710751758E+03
 0.45567054111E+03 0.46480586032E+03 0.44985008444E+03 0.42718408048E+03 0.41668134891E+03
 0.42800456185E+03 0.45464459949E+03 0.48134755031E+03 0.49521292973E+03 0.49467914372E+03
 0.48541930230E+03 0.47037017982E+03 0.44753719084E+03 0.41851692804E+03 0.39374010266E+03
 0.38935123670E+03 0.41840506089E+03 0.48239795360E+03 0.55665409672E+03 0.59705860487E+03
 0.57729129818E+03 0.51567476086E+03 0.45837766142E+03 0.43668942753E+03 0.45397100425E+03
 0.49874099300E+03 0.54807112452E+03 0.56823069642E+03 0.54199388837E+03 0.48681614960E+03
 0.44293963453E+03 0.44153316919E+03 0.49520286303E+03 0.59476784362E+03 0.68914097615E+03
 0.71504949595E+03 0.65027734938E+03 0.51322946154E+03 0.42269026974E+03 0.36362877631E+03
 0.34829750140E+03 0.37502984886E+03 0.43107935025E+03 0.48880942039E+03 0.51518026431E+03
 0.49934024203E+03 0.46317284480E+03 0.43701359913E+03 0.43089528583E+03 0.43451235480E+03
 0.43249073001E+03 0.41644490213E+03 0.39270253308E+03 0.37670814075E+03 0.38040225198E+03
 0.40290495903E+03 0.43033423062E+03 0.44532308657E+03 0.44050280795E+03 0.42485416504E+03
 0.41488888904E+03 0.41744790228E+03 0.42935769388E+03 0.44419747413E+03 0.45980424172E+03
 0.47584697059E+03 0.49264633137E+03 0.50046058150E+03 0.48403025804E+03 0.44340294524E+03
 0.40173413878E+03 0.38939568079E+03 0.42401132385E+03 0.51349221475E+03 0.62309647145E+03
 0.68789240125E+03 0.66576176698E+03 0.57710802953E+03 0.48654487140E+03 0.44481767270E+03
 0.45849216356E+03 0.52315828817E+03 0.60638694743E+03 0.65332716885E+03 0.62861379734E+03
 0.54737885575E+03 0.46370906966E+03 0.42632684628E+03 0.44832268228E+03 0.51997627269E+03
 0.60118278620E+03 0.63681195594E+03 0.60029307073E+03 0.52110948908E+03 0.44673728689E+03
 0.38563674944E+03 0.36271406639E+03 0.37706280196E+03 0.41336193806E+03 0.44980552857E+03
 0.46293936318E+03 0.44588234960E+03 0.41399300252E+03 0.39164842078E+03 0.38839609515E+03
 0.39864077073E+03 0.40776391973E+03 0.40492599203E+03 0.39213816104E+03 0.38059940624E+03
 0.38219541841E+03 0.40020321619E+03 0.42730361255E+03 0.44691977079E+03 0.44856461428E+03
 0.43944712009E+03 0.42790776150E+03 0.42003632151E+03 0.41690576645E+03 0.42162628589E+03
 0.43993660854E+03 0.48014318690E+03 0.53965712577E+03 0.58712781243E+03 0.58357278844E+03
 0.52375471077E+03 0.44663970684E+03 0.40464962481E+03 0.42836942692E+03 0.52053456609E+03
 0.64294710739E+03 0.71951313137E+03 0.69855885171E+03 0.59807250615E+03 0.49017375702E+03
 0.43660170359E+03 0.45123927166E+03 0.53353716798E+03 0.64455465323E+03 0.71418083503E+03
 0.69309383014E+03 0.59371111961E+03 0.47918364394E+03 0.41109176112E+03 0.40736369745E+03
 0.45608326906E+03 0.52822393492E+03 0.57831799611E+03 0.57504531771E+03 0.58231840233E+03
 0.50608983473E+03 0.43335145590E+03 0.39665980759E+03 0.39731764081E+03 0.42062401635E+03
 0.44055001818E+03 0.43907186140E+03 0.41604125620E+03 0.38508283604E+03 0.36428683213E+03
 0.36558269770E+03 0.38508837868E+03 0.40782534032E+03 0.41958963296E+03 0.41743907883E+03
 0.40847725483E+03 0.40399378430E+03 0.41218666214E+03 0.43281218901E+03 0.45287499301E+03
 0.46166702026E+03 0.45973099505E+03 0.45225057876E+03 0.43933576323E+03 0.42350117231E+03
 0.41750434799E+03 0.43857711332E+03 0.50386639136E+03 0.60957263218E+03 0.70077166679E+03
 0.71273987014E+03 0.63240205849E+03 0.51238249821E+03 0.42749630122E+03 0.41977103949E+03
 0.48898069567E+03 0.59574903708E+03 0.66826928682E+03 0.65440216191E+03 0.56537704594E+03
 0.46499364548E+03 0.41210652466E+03 0.42585704730E+03 0.51039583863E+03 0.62850095419E+03
 0.70782710332E+03 0.69498383289E+03 0.59814545522E+03 0.47846057108E+03 0.39900575249E+03
 0.38401642428E+03 0.42699649844E+03 0.50558756532E+03 0.58255810974E+03 0.61482737069E+03
 0.68894041103E+03 0.59825721532E+03 0.49885212055E+03 0.44129523612E+03 0.43194451995E+03
 0.44811297189E+03 0.45872800196E+03 0.44470985162E+03 0.41087190627E+03 0.37510288638E+03
 0.35332541403E+03 0.35760372952E+03 0.38596242480E+03 0.42378835502E+03 0.45339433236E+03
 0.46465662437E+03 0.45696267405E+03 0.44052388128E+03 0.43004971617E+03 0.43434714244E+03
 0.44897682272E+03 0.46538339990E+03 0.47770701525E+03 0.48219625891E+03 0.47104682936E+03
 0.44586794714E+03 0.42705248912E+03 0.44311651813E+03 0.51996192437E+03 0.65256509920E+03
 0.77257909898E+03 0.79823005814E+03 0.70857401804E+03 0.56117721319E+03 0.44335131396E+03
 0.40192857138E+03 0.43548163332E+03 0.51082322918E+03 0.57061437620E+03 0.56882920041E+03
 0.50725867067E+03 0.43031726759E+03 0.38472179238E+03 0.39300490188E+03 0.46402758047E+03
 0.56907072035E+03 0.64625007037E+03 0.64629065674E+03 0.57103153296E+03 0.46882005909E+03
 0.39458231484E+03 0.37729202655E+03 0.42405708107E+03 0.52510340383E+03 0.64090664423E+03
 0.70899967523E+03 0.78403388894E+03 0.67885308662E+03 0.55358175282E+03 0.47593523268E+03
 0.46031615453E+03 0.47398739338E+03 0.48059536542E+03 0.45943770195E+03 0.41750906381E+03
 0.37588117430E+03 0.35138176800E+03 0.35669333481E+03 0.39292789018E+03 0.44790902613E+03
 0.50355551564E+03 0.53630664166E+03 0.53040504050E+03 0.49358366446E+03 0.45317864540E+03
 0.43306868178E+03 0.43813251971E+03 0.46233580389E+03 0.49249028505E+03 0.51280679714E+03
 0.50703254970E+03 0.47473060160E+03 0.44084873718E+03 0.44149167678E+03 0.50544342982E+03
 0.63136351703E+03 0.75331359180E+03 0.78814111753E+03 0.70885985286E+03 0.56570387869E+03
 0.44106066691E+03 0.38295711524E+03 0.38949815568E+03 0.43855667312E+03 0.48873234323E+03
 0.50162518752E+03 0.46917343467E+03 0.41479810301E+03 0.37301789606E+03 0.37296265653E+03
 0.42564168855E+03 0.51147574704E+03 0.58378074330E+03 0.59968985455E+03 0.55118369997E+03
 0.46975347020E+03 0.40167667685E+03 0.38251688101E+03 0.43236784684E+03 0.55241264188E+03
 0.69975869619E+03 0.79574856380E+03 0.79636483137E+03 0.69089364420E+03 0.56135850215E+03
 0.48022167870E+03 0.46406021785E+03 0.47860525601E+03 0.48650993481E+03 0.46608877649E+03
 0.42327134606E+03 0.37863269871E+03 0.35105015031E+03 0.35629155677E+03 0.39933530526E+03
 0.47513243791E+03 0.56433010317E+03 0.62496200031E+03 0.62228804676E+03 0.56162107350E+03
 0.48518247645E+03 0.43706544038E+03 0.43255832782E+03 0.46408920339E+03 0.51172717364E+03
 0.54780809787E+03 0.54739918149E+03 0.50747488726E+03 0.45584232335E+03 0.43248024717E+03
 0.46513046003E+03 0.55753300908E+03 0.65874565112E+03 0.69816996833E+03 0.64569829007E+03
 0.53408991075E+03 0.42638891106E+03 0.36739801528E+03 0.36427721738E+03 0.40391001290E+03
 0.45553934044E+03 0.48509375311E+03 0.47520444609E+03 0.43397477020E+03 0.39091339627E+03
 0.37937481065E+03 0.41623081781E+03 0.49038061386E+03 0.56755710147E+03 0.60337957892E+03
 0.57377317846E+03 0.49664210530E+03 0.42069772409E+03 0.39303183876E+03 0.43481161650E+03
 0.55174363241E+03 0.70194633843E+03 0.80382197817E+03 0.70821675997E+03 0.62006741802E+03
 0.51495337507E+03 0.45397882079E+03 0.44831862092E+03 0.46897305387E+03 0.48270320966E+03
 0.46787398775E+03 0.42765339586E+03 0.38068720101E+03 0.34915772573E+03 0.35252491351E+03
 0.39967176134E+03 0.49290546852E+03 0.60991616531E+03 0.69472979474E+03 0.69814544449E+03
 0.62243684824E+03 0.52027612519E+03 0.45130620459E+03 0.44073008014E+03 0.48016380772E+03
 0.55039909753E+03 0.60787293639E+03 0.61116279622E+03 0.55483940973E+03 0.47616990745E+03
 0.42319587759E+03 0.42271978840E+03 0.47567293105E+03 0.54948878201E+03 0.59105228132E+03