432
Atoms. Timestep: 610000
1 1.65736 8.47654 4.60587
1 0.691446 7.88323 5.43941
2 1.10376 8.10599 5.23966
2 1.1387 8.15258 4.96801
1 2.38592 9.5265 0.400951
1 3.55828 9.56927 1.21651
2 3.05943 9.39285 0.969292
2 2.99171 9.41952 0.832044
1 5.82754 9.02084 12.0049
1 6.87115 9.87979 11.849
2 6.14475 9.40917 11.7805
2 6.34276 9.34936 11.8374
1 11.7658 13.0453 16.5069
1 11.4434 12.7312 15.0774
2 11.4505 12.9771 15.92
2 11.6948 13.1545 15.9463
1 13.4953 6.02515 5.66674
1 14.1799 6.71597 4.69686
2 13.9608 6.6483 5.13449
2 13.8974 6.41671 5.24496
1 8.6084 16.4629 6.26992
1 8.42019 15.1063 6.59565
2 8.67647 15.9001 6.47347
2 8.57577 15.8198 6.44254
1 4.62053 5.82987 12.6635
1 5.89976 6.29855 13.8356
2 5.3897 6.09034 13.5735
2 5.12258 5.96319 13.2513
1 2.25082 7.94603 10.3029
1 2.48576 6.72628 11.4518
2 2.48867 7.21644 11.2821
2 2.13257 7.45441 11.0855
1 6.78824 1.70518 15.8445
1 5.46904 2.45938 16.3709
2 6.14096 2.16856 16.0947
2 6.12454 1.96934 16.2834
1 15.7412 13.7849 15.2976
1 15.252 12.42 15.6371
2 15.424 13.0928 15.4767
2 15.8551 13.3934 15.1879
1 16.6558 9.21632 16.3058
1 0.160216 9.8525 15.0195
2 16.8938 9.59768 15.4258
2 16.9322 9.7044 15.6803
1 12.8546 16.8626 14.9345
1 12.2269 0.544168 13.9062
2 12.4839 0.253173 14.3456
2 12.4408 16.9165 14.4871
1 6.5784 0.397355 1.56998
1 6.90364 0.569228 2.79603
2 6.74957 0.458951 2.10294
2 6.79036 0.574539 2.22389
1 2.21659 10.5827 4.27203
1 2.54364 12.1091 4.13353
2 2.55175 11.3949 4.15686
2 2.52446 11.2065 4.30457
1 10.0592 5.58611 10.1123
1 10.0564 5.27567 11.8628
2 9.78589 5.51745 10.9635
2 9.93199 5.58181 10.7589
1 11.3544 14.7887 9.852
1 11.142 15.3016 8.50339
2 11.2903 15.1597 9.30365
2 11.0685 14.9404 9.11463
1 1.71503 6.85326 14.8357
1 1.08516 5.98157 14.1366
2 1.58582 6.56244 14.7386
2 1.29702 6.42247 14.5161
1 1.57467 3.75738 5.41336
1 2.72926 3.12568 6.16438
2 2.07106 3.40931 5.77987
2 2.34648 3.34077 5.95281
1 5.50681 12.6485 5.95141
1 4.96735 12.1417 7.27209
2 5.26095 12.6255 6.97974
2 5.2572 12.2332 6.57339
1 16.2816 0.281298 12.9145
1 16.7817 16.0384 12.7173
2 16.5587 16.6824 12.7881
2 16.555 16.779 12.6791
1 11.2432 11.8481 9.39289
1 10.2278 11.2457 8.4308
2 10.8639 11.6744 9.09042
2 10.8961 11.5818 8.81994
1 11.5857 6.93367 7.4876
1 11.7876 5.50528 8.05683
2 11.7659 5.92831 7.95834
2 11.426 6.14821 7.69812
1 0.298362 13.2047 10.8209
1 0.0533024 13.5385 12.2937
2 0.122167 13.1922 11.4095
2 0.136295 13.316 11.7626
1 13.637 10.0215 11.9864
1 14.151 11.2479 12.6557
2 13.7555 10.9503 12.7089
2 13.8674 10.835 12.2951
1 4.39056 6.09189 5.93806
1 5.04424 4.79482 6.02394
2 4.74659 5.44137 6.05164
2 4.89723 5.31068 6.12446
1 2.69103 15.8515 6.06878
1 3.93501 15.895 5.01436
2 3.16015 15.6596 5.42933
2 3.47376 15.8642 5.53345
1 6.48481 6.78462 0.714148
1 5.80803 6.6097 16.446
2 6.07522 6.70109 0.202103
2 6.14284 6.83622 0.00956929
1 11.7167 0.644825 2.06176
1 11.6638 0.169385 0.802663
2 11.7661 0.495302 1.60074
2 11.5924 0.573008 1.41793
1 5.81548 16.7259 13.4579
1 6.11728 0.242764 12.0465
2 5.98942 0.00378876 13.0785
2 6.15459 0.0202342 12.658
1 14.2358 14.2613 1.5051
1 13.161 14.3867 2.61244
2 13.8438 14.0989 1.9682
2 13.4844 14.2676 2.12205
1 13.5174 13.5236 12.4291
1 12.7453 14.6087 12.4069
2 13.448 14.091 12.5215
2 13.0696 14.1137 12.3748
1 7.45598 6.33929 4.95216
1 8.31935 7.08186 5.66328
2 8.01047 6.79949 5.52347
2 7.8141 6.87717 5.23126
1 16.6433 3.24817 13.2787
1 15.2812 3.46267 13.9386
2 15.9222 3.27718 13.7404
2 16.1571 3.38663 13.4512
1 12.7564 2.20423 4.39399
1 12.851 3.22277 3.47863
2 12.7192 2.69281 3.91877
2 12.7443 2.84014 3.87526
1 8.13289 3.64767 12.1547
1 6.86551 3.66849 13.1789
2 7.2636 3.50481 13.198
2 7.7575 3.72872 12.5372
1 9.58196 0.768965 15.6175
1 9.22736 1.72571 14.4366
2 9.12452 1.26248 14.8095
2 9.39374 1.19088 14.9897
1 7.37622 12.7814 14.2225
1 6.14029 13.6052 14.0347
2 6.90005 12.9796 14.1557
2 6.70393 13.0297 14.1422
1 1.59204 12.257 8.26882
1 0.767738 13.3464 7.52158
2 0.980269 12.8929 7.92245
2 1.17147 12.9259 8.13868
1 14.2835 13.1897 9.17996
1 14.3636 12.0567 8.45165
2 14.2147 12.8793 8.86567
2 14.5563 12.4229 8.78798
1 5.94278 4.63124 2.0656
1 6.33406 4.21675 3.41066
2 6.20046 4.47573 2.93371
2 6.1588 4.39968 2.46552
1 7.75408 9.01867 7.99487
1 7.89731 10.4526 8.09464
2 7.82809 9.54714 8.01791
2 7.75962 9.67496 8.07086
1 1.80298 14.3193 1.84105
1 2.45897 14.7223 3.01437
2 2.10301 14.6294 2.43146
2 2.12124 14.352 2.43423
1 8.12206 2.49267 4.88616
1 9.07986 3.45811 3.99653
2 8.62025 2.78106 4.61887
2 8.64511 2.96511 4.40049
1 8.53167 4.56087 8.87249
1 8.22474 4.38618 7.28706
2 8.394 4.2546 8.25971
2 8.60719 4.35755 8.13109
1 8.27841 16.8712 10.2323
1 7.85932 16.3731 9.05746
2 8.07268 16.8207 9.76635
2 8.22119 16.7655 9.97502
1 6.1233 7.43599 9.56339
1 5.1208 6.6452 9.29848
2 6.17141 7.11279 9.32673
2 5.56873 7.04351 9.51644
1 2.13558 0.602062 8.83515
1 2.66275 1.24456 7.86815
2 2.47025 0.97701 8.25328
2 2.63832 1.07042 8.38138
1 3.5456 1.81361 1.70255
1 3.34214 0.572104 2.39925
2 3.49595 1.04104 2.03115
2 3.61941 1.2397 2.07037
1 14.754 2.10897 16.5683
1 13.3053 2.417 16.538
2 13.9382 2.20083 16.5995
2 14.2096 1.9543 16.3917
1 8.76434 10.2711 16.5656
1 9.46012 9.72936 15.2677
2 9.14438 9.87406 15.8004
2 9.04876 10.1885 15.9775
1 3.12368 2.29314 12.3208
1 2.59458 3.55744 11.8344
2 2.65779 2.95395 11.9046
2 2.86384 2.87805 12.1725
1 14.1451 3.85649 7.71932
1 14.1536 2.78691 6.93683
2 14.0228 3.26417 7.43169
2 14.0042 3.24565 7.37293
1 16.6087 3.09546 10.5192
1 16.0193 2.15007 9.38465
2 16.1463 2.62364 9.76225
2 16.7198 2.77775 10.282
1 11.1482 2.28371 8.09768
1 10.8078 1.18618 8.6966
2 11.1138 1.87619 8.51233
2 11.1056 1.67941 8.3941
1 12.6949 12.1791 6.05231
1 12.1545 12.5123 4.72072
2 12.6367 12.1322 5.48621
2 12.3357 12.2043 5.19795
1 8.35391 14.9476 0.170077
1 9.45843 14.3151 16.6751
2 8.71323 15.0318 0.119306
2 8.94159 14.6848 16.9383
1 15.7902 14.6597 6.2071
1 16.0534 13.4353 5.38686
2 15.8538 13.952 5.53361
2 15.9158 14.0409 5.7508
1 2.58726 9.65863 12.3289
1 2.2321 10.9426 13.0665
2 2.60892 10.1692 12.7734
2 2.46939 10.5096 12.7871
1 4.20812 4.43013 16.6392
1 2.76526 4.63595 16.6603
2 3.82713 4.37653 16.6195
2 3.32352 4.43482 16.8736
1 12.7767 5.19047 1.09949
1 14.1962 5.31494 1.22036
2 13.2291 5.40078 1.27484
2 13.3746 5.4953 1.36885
1 4.45234 8.84992 5.83316
1 5.49434 8.4617 5.09506
2 5.01968 8.60665 5.38862
2 4.74477 8.58352 5.51014
1 8.60754 15.9542 12.5108
1 9.61277 15.3834 13.418
2 9.34588 15.3425 13.2258
2 9.1876 15.5076 12.7954
1 5.27057 8.95918 15.5052
1 5.52889 9.70246 14.465
2 5.42355 9.21567 14.9633
2 5.40429 9.37003 14.9216
1 4.07957 14.4987 12.1215
1 2.96139 13.8585 13.1484
2 3.60988 14.0972 12.5397
2 3.57469 14.2762 12.6301
1 3.55583 5.72961 2.99744
1 2.27138 6.35182 3.09165
2 2.78382 5.92732 3.17532
2 2.9061 5.92499 3.16452
1 9.7549 1.58593 12.3833
1 10.4566 2.37019 11.429
2 10.0016 1.92807 11.9405
2 10.2469 2.06288 11.7985
1 12.8295 16.7189 10.18
1 13.9433 0.67489 10.7406
2 13.492 0.304186 10.4294
2 13.448 0.0397373 10.6035
1 9.43149 3.0472 0.307545
1 9.5017 3.80985 1.40738
2 9.61844 3.47297 1.00009
2 9.53957 3.56681 0.950644
1 15.9761 4.53976 4.04991
1 16.9224 3.89665 3.17455
2 16.5535 4.07175 3.73614
2 16.4608 4.16981 3.56588
1 8.51481 6.51888 14.6716
1 8.91163 7.53101 13.4982
2 8.74647 7.08353 14.2234
2 8.89073 6.88701 14.0646
1 2.35073 12.0496 16.1736
1 3.14552 12.1875 15.1721
2 2.52229 12.2512 15.5662
2 2.62918 12.2399 15.6436
1 0.110224 10.093 10.1738
1 16.9619 9.75411 8.92511
2 16.9988 9.68622 9.46597
2 0.0380689 9.74048 9.48546
1 10.2115 11.9053 2.33804
1 11.1191 11.0493 1.50565
2 10.8026 11.0981 1.95783
2 10.3166 11.7342 1.94745
1 5.47227 14.3103 3.81897
1 6.03597 13.3436 3.12261
2 5.72358 13.7884 3.48238
2 5.67845 13.9338 3.53915
1 11.1333 11.5752 13.1816
1 10.0261 12.1242 12.9733
2 10.1911 11.9345 12.8684
2 10.5051 11.9081 13.0611
1 16.8374 15.2599 9.15166
1 16.1631 16.6542 9.20627
2 16.6973 16.0617 9.17271
2 16.6216 15.9167 9.10595
1 7.57621 8.75027 3.00105
1 6.95954 9.4793 2.1179
2 7.30283 8.93277 2.78027
2 7.17308 9.03666 2.61309
1 5.84356 4.01119 9.71372
1 5.75701 2.52918 9.88582
2 5.71875 3.15061 9.71233
2 5.75415 3.16422 9.6301
1 9.39421 8.08071 0.426708
1 10.3613 6.91963 0.807086
2 9.86656 7.47529 0.746304
2 10.0831 7.37795 0.454972
1 7.06739 12.6089 10.8691
1 8.28909 13.0241 10.4995
2 7.71353 12.8824 10.5768
2 7.6787 12.9525 10.591
1 5.84304 12.4828 1.08419
1 6.03375 11.4333 0.378272
2 6.07222 11.901 0.597614
2 5.97059 11.8532 0.63687
1 2.15917 5.24389 8.21469
1 3.14068 4.50786 9.11857
2 2.79556 4.96906 8.9994
2 2.46523 5.23516 8.65422
1 4.65103 15.1059 16.1355
1 4.35317 15.6403 0.432518
2 4.40653 15.2886 16.7388
2 4.55606 15.1634 0.0004737
1 10.1681 15.0227 2.95566
1 9.55782 14.3128 4.35766
2 9.70843 14.5296 3.67365
2 9.78726 14.8856 3.54925
1 14.6087 10.2622 6.07191
1 16.3455 9.96543 6.50952
2 15.7755 10.2797 6.23908
2 15.4435 10.0965 6.03597
1 6.27848 1.22413 5.64349
1 6.00691 1.71747 6.84632
2 6.26268 1.27544 6.17442
2 6.14772 1.48272 6.11093
1 12.9078 4.04459 12.0859
1 13.126 3.96089 10.824
2 12.9531 4.09078 11.5938
2 13.1284 4.03345 11.3976
1 3.08714 1.41669 15.1085
1 2.28144 0.316161 14.6353
2 2.7446 1.13203 15.1312
2 2.5035 0.492863 14.8241
1 15.8966 6.15254 7.56261
1 16.9455 6.3099 8.77572
2 16.6759 6.0919 8.16556
2 16.3509 6.3208 8.3707
1 0.773321 2.07641 0.213383
1 0.280072 3.3287 0.39684
2 0.674563 2.77055 0.177839
2 0.54581 2.86928 0.403817
1 9.1354 12.028 5.50422
1 7.89793 12.8042 5.52647
2 8.41053 12.4518 5.79497
2 8.65267 12.62 5.66661
1 0.0993037 7.9588 2.07491
1 16.4096 7.20988 1.22214
2 16.8526 7.51896 1.56353
2 16.8906 7.52934 1.65471
1 15.9347 11.1401 2.04562
1 16.7828 11.7721 1.55001
2 16.5024 11.4212 1.72544
2 16.2277 11.4603 1.82816
1 12.7914 8.02001 2.64583
1 13.7811 9.17042 2.71608
2 13.1133 8.78847 2.76729
2 13.1151 8.51727 2.5777
1 11.07 9.6703 6.18873
1 10.6172 8.48336 5.55401
2 10.6974 8.99141 5.89609
2 10.9004 9.15255 6.02405
1 14.0902 6.62205 15.453
1 14.9951 7.20539 14.545
2 14.5617 6.99307 14.9709
2 14.2822 6.82951 15.0238
1 12.7869 16.7155 5.71278
1 11.35 16.4813 5.58376
2 11.9956 16.6561 5.5695
2 12.2011 16.4139 5.63336
1 14.5274 0.426493 2.33311
1 15.5719 0.594461 3.19638
2 15.0892 0.636801 2.90768
2 14.9691 0.640913 2.94368
1 10.926 5.61714 3.38517
1 10.1835 5.73297 4.6169
2 10.5339 5.68051 3.91354
2 10.4587 5.65969 3.87901
1 15.26 6.20119 12.3369
1 15.6074 7.27534 11.4717
2 15.2421 7.03659 11.809
2 15.1865 6.71013 11.926
1 13.0347 8.40299 9.02428
1 14.5299 8.43909 8.88718
2 13.8615 8.5775 8.84765
2 13.3707 8.43565 8.92299
1 5.12715 15.5308 9.08769
1 4.52019 16.8171 9.59948
2 4.72899 16.2764 9.40268
2 4.88227 16.0147 9.36037
1 16.5313 15.8787 0.0672114
1 0.091339 0.00945047 16.3335
2 16.4824 16.478 16.9308
2 16.7721 16.3789 16.9016
1 2.98849 9.92542 8.63331
1 4.35992 10.0948 9.68514
2 3.76382 10.0917 9.17334
2 3.19557 10.1073 8.94699
1 11.5071 5.27415 14.3713
1 11.7754 3.81146 14.1777
2 11.4288 4.64137 14.34
2 11.7015 4.5504 14.2718
1 13.3154 9.61518 16.0196
1 13.3675 10.1625 0.199983
2 13.3106 9.94943 16.6076
2 13.314 9.72414 16.4159
1 16.7111 0.0394085 5.44415
1 0.12523 1.47166 5.93147
2 16.9057 0.89636 5.71669
2 16.9764 0.753968 5.64683
1 9.67367 8.01091 10.761
1 10.3851 9.09439 11.3384
2 10.2284 8.55592 11.215
2 10.0235 8.88002 11.2357
432
Atoms. Timestep: 611000
1 1.65736 8.47654 4.60587
1 0.691446 7.88323 5.43941
2 1.34186 8.2224 4.78036
2 1.28172 8.15206 5.07479
1 2.38592 9.5265 0.400951
1 3.55828 9.56927 1.21651
2 2.82953 9.58004 0.63898
2 3.08428 9.4752 0.935858
1 5.82754 9.02084 12.0049
1 6.87115 9.87979 11.849
2 6.52164 9.6248 11.8051
2 6.43171 9.59442 11.9978
1 11.7658 13.0453 16.5069
1 11.4434 12.7312 15.0774
2 11.7283 13.0964 15.9275
2 11.4507 12.6655 15.7712
1 13.4953 6.02515 5.66674
1 14.1799 6.71597 4.69686
2 13.7643 6.24295 5.103
2 13.8655 6.44082 5.15363
1 8.6084 16.4629 6.26992
1 8.42019 15.1063 6.59565
2 8.40564 15.6 6.38269
2 8.49692 15.8198 6.43107
1 4.62053 5.82987 12.6635
1 5.89976 6.29855 13.8356
2 5.21422 6.11846 13.1893
2 5.12553 6.19194 13.1423
1 2.25082 7.94603 10.3029
1 2.48576 6.72628 11.4518
2 2.34029 7.16876 10.9009
2 2.49436 7.25072 10.8001
1 6.78824 1.70518 15.8445
1 5.46904 2.45938 16.3709
2 5.93681 2.12254 16.2449
2 6.08372 2.10984 15.9228
1 15.7412 13.7849 15.2976
1 15.252 12.42 15.6371
2 15.6623 13.0133 15.3389
2 15.3342 12.9237 15.5948
1 16.6558 9.21632 16.3058
1 0.160216 9.8525 15.0195
2 -0.0784694 9.52238 15.7714
2 17.0199 9.49455 15.56
1 12.8546 16.8626 14.9345
1 12.2269 0.544168 13.9062
2 12.568 -0.0119411 14.5534
2 12.5272 0.292376 14.1324
1 6.5784 0.397355 1.56998
1 6.90364 0.569228 2.79603
2 6.69079 0.473977 2.40992
2 6.68198 0.429741 2.23056
1 2.21659 10.5827 4.27203
1 2.54364 12.1091 4.13353
2 2.20385 11.1309 4.32385
2 2.20701 11.4577 4.04451
1 10.0592 5.58611 10.1123
1 10.0564 5.27567 11.8628
2 10.1676 5.33036 10.8921
2 9.97068 5.15162 10.644
1 11.3544 14.7887 9.852
1 11.142 15.3016 8.50339
2 11.0982 14.8297 9.12374
2 11.3083 15.1422 9.3047
1 1.71503 6.85326 14.8357
1 1.08516 5.98157 14.1366
2 1.27343 6.38834 14.2781
2 1.45645 6.36207 14.4675
1 1.57467 3.75738 5.41336
1 2.72926 3.12568 6.16438
2 2.11545 3.34099 5.70433
2 1.85837 3.47265 5.57251
1 5.50681 12.6485 5.95141
1 4.96735 12.1417 7.27209
2 5.2819 12.2924 6.55316
2 5.42228 12.6409 6.70317
1 16.2816 0.281298 12.9145
1 16.7817 16.0384 12.7173
2 16.5882 16.4683 12.8398
2 16.5158 16.5753 12.9523
1 11.2432 11.8481 9.39289
1 10.2278 11.2457 8.4308
2 10.6762 11.4138 8.59805
2 10.6635 11.6388 8.86515
1 11.5857 6.93367 7.4876
1 11.7876 5.50528 8.05683
2 11.4359 6.21129 7.72513
2 11.8695 6.12501 7.78431
1 0.298362 13.2047 10.8209
1 0.0533024 13.5385 12.2937
2 0.0524294 13.4722 11.4933
2 0.0512047 13.4803 11.709
1 13.637 10.0215 11.9864
1 14.151 11.2479 12.6557
2 14.0696 10.4721 12.1843
2 13.8226 10.2749 12.4004
1 4.39056 6.09189 5.93806
1 5.04424 4.79482 6.02394
2 4.78102 5.42704 5.94775
2 4.6533 5.4247 5.77253
1 2.69103 15.8515 6.06878
1 3.93501 15.895 5.01436
2 3.51189 15.9946 5.41271
2 3.37795 15.7968 5.1718
1 6.48481 6.78462 0.714148
1 5.80803 6.6097 16.446
2 6.17683 6.70749 16.8745
2 6.19763 6.66626 0.111869
1 11.7167 0.644825 2.06176
1 11.6638 0.169385 0.802663
2 11.4913 0.260106 1.15838
2 11.6759 0.26737 1.39562
1 5.81548 16.7259 13.4579
1 6.11728 0.242764 12.0465
2 6.07994 16.9384 12.6928
2 6.14279 0.110683 12.686
1 14.2358 14.2613 1.5051
1 13.161 14.3867 2.61244
2 13.7192 14.3206 1.96022
2 13.8707 14.1345 1.98946
1 13.5174 13.5236 12.4291
1 12.7453 14.6087 12.4069
2 12.7092 14.1119 12.26
2 13.2327 13.9554 12.4596
1 7.45598 6.33929 4.95216
1 8.31935 7.08186 5.66328
2 7.71615 6.80752 5.11542
2 8.04246 6.80443 5.26117
1 16.6433 3.24817 13.2787
1 15.2812 3.46267 13.9386
2 16.0598 3.48933 13.389
2 15.8029 3.30441 13.6689
1 12.7564 2.20423 4.39399
1 12.851 3.22277 3.47863
2 12.7933 2.72898 3.92309
2 12.733 2.57314 3.92316
1 8.13289 3.64767 12.1547
1 6.86551 3.66849 13.1789
2 7.96926 3.76862 12.2329
2 7.33958 3.51452 13.0042
1 9.58196 0.768965 15.6175
1 9.22736 1.72571 14.4366
2 9.53663 1.23232 15.2846
2 9.30363 1.13848 15.1764
1 7.37622 12.7814 14.2225
1 6.14029 13.6052 14.0347
2 6.5346 13.4461 14.0589
2 7.02988 13.1629 14.1694
1 1.59204 12.257 8.26882
1 0.767738 13.3464 7.52158
2 1.48865 12.74 7.89995
2 1.28761 12.7033 7.82518
1 14.2835 13.1897 9.17996
1 14.3636 12.0567 8.45165
2 14.4393 12.4366 8.88487
2 14.126 12.7232 8.76136
1 5.94278 4.63124 2.0656
1 6.33406 4.21675 3.41066
2 5.84946 4.44758 2.38879
2 6.13 4.4231 2.95734
1 7.75408 9.01867 7.99487
1 7.89731 10.4526 8.09464
2 7.82019 10.0568 8.06994
2 7.83175 9.60989 8.11166
1 1.80298 14.3193 1.84105
1 2.45897 14.7223 3.01437
2 2.22976 14.3995 2.38676
2 2.08496 14.5965 2.34798
1 8.12206 2.49267 4.88616
1 9.07986 3.45811 3.99653
2 8.72549 3.08122 4.3346
2 8.35928 2.70225 4.58722
1 8.53167 4.56087 8.87249
1 8.22474 4.38618 7.28706
2 8.50309 4.6759 7.91384
2 8.13726 4.54182 7.86667
1 8.27841 16.8712 10.2323
1 7.85932 16.3731 9.05746
2 8.10763 16.6691 9.77033
2 8.06513 16.6615 9.48863
1 6.1233 7.43599 9.56339
1 5.1208 6.6452 9.29848
2 5.38472 7.07825 9.502
2 5.7433 7.01486 9.34603
1 2.13558 0.602062 8.83515
1 2.66275 1.24456 7.86815
2 2.40673 0.89151 8.61284
2 2.22228 0.768261 8.41095
1 3.5456 1.81361 1.70255
1 3.34214 0.572104 2.39925
2 3.51986 1.43934 2.01685
2 3.32519 0.964179 2.06899
1 14.754 2.10897 16.5683
1 13.3053 2.417 16.538
2 14.0803 2.23902 16.4298
2 13.7947 2.41284 16.6502
1 8.76434 10.2711 16.5656
1 9.46012 9.72936 15.2677
2 9.09861 10.1423 15.9576
2 9.11564 9.80295 16.0407
1 3.12368 2.29314 12.3208
1 2.59458 3.55744 11.8344
2 2.97017 3.07802 12.147
2 2.74622 2.96672 11.9667
1 14.1451 3.85649 7.71932
1 14.1536 2.78691 6.93683
2 14.2127 3.26206 7.45629
2 14.2419 3.39257 7.38229
1 16.6087 3.09546 10.5192
1 16.0193 2.15007 9.38465
2 16.5081 2.53365 10.0676
2 16.1634 2.70622 9.93693
1 11.1482 2.28371 8.09768
1 10.8078 1.18618 8.6966
2 10.8817 1.72657 8.37964
2 10.7391 1.86736 8.53153
1 12.6949 12.1791 6.05231
1 12.1545 12.5123 4.72072
2 12.3278 12.3693 5.51505
2 12.5216 12.3888 5.59708
1 8.35391 14.9476 0.170077
1 9.45843 14.3151 16.6751
2 8.98087 14.5834 -0.257527
2 8.98066 14.7258 16.8687
1 15.7902 14.6597 6.2071
1 16.0534 13.4353 5.38686
2 16.1138 14.1551 5.91749
2 16.0551 14.1441 5.78962
1 2.58726 9.65863 12.3289
1 2.2321 10.9426 13.0665
2 2.0827 10.4715 12.507
2 2.29998 10.2522 12.673
1 4.20812 4.43013 16.6392
1 2.76526 4.63595 16.6603
2 3.26125 4.59007 16.721
2 3.88608 4.37 16.4839
1 12.7767 5.19047 1.09949
1 14.1962 5.31494 1.22036
2 13.6588 5.3643 1.20395
2 13.2843 5.39226 1.13868
1 4.45234 8.84992 5.83316
1 5.49434 8.4617 5.09506
2 4.83768 8.57215 5.5385
2 5.17336 8.69593 5.46356
1 8.60754 15.9542 12.5108
1 9.61277 15.3834 13.418
2 9.00113 15.8187 12.6778
2 9.14113 15.8059 13.0812
1 5.27057 8.95918 15.5052
1 5.52889 9.70246 14.465
2 5.36105 9.29892 15.0782
2 5.42477 9.22044 15.086
1 4.07957 14.4987 12.1215
1 2.96139 13.8585 13.1484
2 3.34459 14.2323 12.9311
2 3.6364 14.0948 12.5925
1 3.55583 5.72961 2.99744
1 2.27138 6.35182 3.09165
2 2.95318 6.17194 2.86832
2 2.91531 6.15737 2.93541
1 9.7549 1.58593 12.3833
1 10.4566 2.37019 11.429
2 10.1236 1.9501 11.8755
2 9.8081 1.82365 11.9638
1 12.8295 16.7189 10.18
1 13.9433 0.67489 10.7406
2 13.3851 0.287702 10.7366
2 13.421 0.522239 10.5747
1 9.43149 3.0472 0.307545
1 9.5017 3.80985 1.40738
2 9.39125 3.41525 0.997784
2 9.46747 3.39043 0.93574
1 15.9761 4.53976 4.04991
1 16.9224 3.89665 3.17455
2 16.4113 4.41023 3.63523
2 16.5136 4.24742 3.69538
1 8.51481 6.51888 14.6716
1 8.91163 7.53101 13.4982
2 8.6647 6.90254 14.1064
2 8.61637 7.2906 14.0339
1 2.35073 12.0496 16.1736
1 3.14552 12.1875 15.1721
2 2.91641 12.1765 15.6635
2 2.59539 11.9772 15.6043
1 0.110224 10.093 10.1738
1 16.9619 9.75411 8.92511
2 0.12262 10.1089 9.68759
2 0.216195 10.0348 9.59859
1 10.2115 11.9053 2.33804
1 11.1191 11.0493 1.50565
2 10.4661 11.7082 2.02228
2 10.914 11.1939 2.00468
1 5.47227 14.3103 3.81897
1 6.03597 13.3436 3.12261
2 5.87629 14.1132 3.56164
2 5.88163 13.753 3.46343
1 11.1333 11.5752 13.1816
1 10.0261 12.1242 12.9733
2 10.9207 11.6672 13.2538
2 10.5732 11.6868 12.8344
1 16.8374 15.2599 9.15166
1 16.1631 16.6542 9.20627
2 16.5499 15.82 9.09511
2 16.5019 16.0963 9.301
1 7.57621 8.75027 3.00105
1 6.95954 9.4793 2.1179
2 7.21287 9.22053 2.41788
2 7.416 9.03228 2.56549
1 5.84356 4.01119 9.71372
1 5.75701 2.52918 9.88582
2 5.81412 3.30989 9.74048
2 5.83727 3.00914 9.82238
1 9.39421 8.08071 0.426708
1 10.3613 6.91963 0.807086
2 10.1223 7.29286 0.575
2 10.0325 7.17935 0.866854
1 7.06739 12.6089 10.8691
1 8.28909 13.0241 10.4995
2 7.5326 12.8376 10.71
2 7.60218 12.698 10.6415
1 5.84304 12.4828 1.08419
1 6.03375 11.4333 0.378272
2 5.90264 12.0225 0.818442
2 5.9101 12.0745 0.67037
1 2.15917 5.24389 8.21469
1 3.14068 4.50786 9.11857
2 2.60377 4.85622 8.60203
2 2.78305 4.65221 8.76496
1 4.65103 15.1059 16.1355
1 4.35317 15.6403 0.432518
2 4.6934 15.5126 16.7776
2 4.53992 15.5815 16.4459
1 10.1681 15.0227 2.95566
1 9.55782 14.3128 4.35766
2 10.2671 14.9965 3.41077
2 10.0118 14.58 3.67994
1 14.6087 10.2622 6.07191
1 16.3455 9.96543 6.50952
2 15.5616 9.99687 6.49729
2 15.3307 10.2635 6.43028
1 6.27848 1.22413 5.64349
1 6.00691 1.71747 6.84632
2 6.03954 1.53457 6.22318
2 6.2067 1.4702 6.40362
1 12.9078 4.04459 12.0859
1 13.126 3.96089 10.824
2 13.1685 4.02077 11.1066
2 13.0489 4.11815 11.3413
1 3.08714 1.41669 15.1085
1 2.28144 0.316161 14.6353
2 2.74818 0.660429 14.6769
2 2.78072 1.14283 14.8463
1 15.8966 6.15254 7.56261
1 16.9455 6.3099 8.77572
2 16.3176 6.38416 8.13199
2 16.6527 6.22397 7.95487
1 0.773321 2.07641 0.213383
1 0.280072 3.3287 0.39684
2 0.423307 2.93982 0.456406
2 0.66063 2.74289 0.17786
1 9.1354 12.028 5.50422
1 7.89793 12.8042 5.52647
2 8.69943 12.3985 5.36192
2 8.53232 12.3207 5.4705
1 0.0993037 7.9588 2.07491
1 16.4096 7.20988 1.22214
2 16.8075 7.4987 1.70634
2 16.65 7.58018 1.48787
1 15.9347 11.1401 2.04562
1 16.7828 11.7721 1.55001
2 16.2084 11.3969 1.89184
2 16.4314 11.3771 1.73868
1 12.7914 8.02001 2.64583
1 13.7811 9.17042 2.71608
2 13.5647 8.66555 2.7508
2 13.3974 8.62565 2.81715
1 11.07 9.6703 6.18873
1 10.6172 8.48336 5.55401
2 10.9603 9.01018 5.87083
2 10.8338 9.02251 5.70219
1 14.0902 6.62205 15.453
1 14.9951 7.20539 14.545
2 14.3395 6.8267 15.0085
2 14.6257 7.04006 15.0205
1 12.7869 16.7155 5.71278
1 11.35 16.4813 5.58376
2 12.3088 16.473 5.84288
2 11.9673 16.8771 5.75804
1 14.5274 0.426493 2.33311
1 15.5719 0.594461 3.19638
2 15.0353 0.448071 2.60516
2 15.1694 0.405343 2.63477
1 10.926 5.61714 3.38517
1 10.1835 5.73297 4.6169
2 10.585 5.63173 3.79942
2 10.6697 5.72869 3.93766
1 15.26 6.20119 12.3369
1 15.6074 7.27534 11.4717
2 15.5794 6.761 11.9145
2 15.5896 6.82839 11.8372
1 13.0347 8.40299 9.02428
1 14.5299 8.43909 8.88718
2 13.4139 8.41344 9.21634
2 14.2001 8.52276 9.10115
1 5.12715 15.5308 9.08769
1 4.52019 16.8171 9.59948
2 4.87297 16.0305 9.34843
2 4.72053 16.0254 9.23473
1 16.5313 15.8787 0.0672114
1 0.091339 0.00945047 16.3335
2 17.1437 16.3204 16.4309
2 16.8437 16.3548 16.4181
1 2.98849 9.92542 8.63331
1 4.35992 10.0948 9.68514
2 3.45959 10.0086 9.04115
2 4.00468 10.0987 9.05934
1 11.5071 5.27415 14.3713
1 11.7754 3.81146 14.1777
2 11.7612 4.45578 14.1502
2 11.4162 4.51899 14.2932
1 13.3154 9.61518 16.0196
1 13.3675 10.1625 0.199983
2 13.4448 9.90825 16.5167
2 13.115 10.0418 16.8052
1 16.7111 0.0394085 5.44415
1 0.12523 1.47166 5.93147
2 16.9413 0.637574 5.77475
2 16.8272 0.541008 5.59128
1 9.67367 8.01091 10.761
1 10.3851 9.09439 11.3384
2 9.89318 8.81002 11.1134
2 9.98134 8.44203 11.0513
432
Atoms. Timestep: 612000
1 1.65736 8.47654 4.60587
1 0.691446 7.88323 5.43941
2 1.0585 8.09298 5.23079
2 1.14414 8.25915 4.9785
1 2.38592 9.5265 0.400951
1 3.55828 9.56927 1.21651
2 3.19036 9.43637 1.09478
2 2.83776 9.66855 0.707381
1 5.82754 9.02084 12.0049
1 6.87115 9.87979 11.849
2 6.27572 9.35325 11.9436
2 6.21008 9.54368 11.5669
1 11.7658 13.0453 16.5069
1 11.4434 12.7312 15.0774
2 11.6418 12.6737 15.5962
2 11.8331 13.1768 15.8569
1 13.4953 6.02515 5.66674
1 14.1799 6.71597 4.69686
2 14.0817 6.39844 5.22974
2 13.9454 6.2843 5.09237
1 8.6084 16.4629 6.26992
1 8.42019 15.1063 6.59565
2 8.57095 15.9738 6.52147
2 8.37491 15.7665 6.54996
1 4.62053 5.82987 12.6635
1 5.89976 6.29855 13.8356
2 4.90313 5.91525 13.0664
2 5.10164 6.01708 13.3904
1 2.25082 7.94603 10.3029
1 2.48576 6.72628 11.4518
2 2.32483 7.48955 10.8479
2 2.20713 7.18078 11.1793
1 6.78824 1.70518 15.8445
1 5.46904 2.45938 16.3709
2 6.12132 2.08812 15.9115
2 6.11001 2.01905 16.2573
1 15.7412 13.7849 15.2976
1 15.252 12.42 15.6371
2 15.463 13.4805 15.6147
2 15.6251 13.255 15.395
1 16.6558 9.21632 16.3058
1 0.160216 9.8525 15.0195
2 -0.00751317 9.60514 15.4795
2 16.8607 9.57416 15.6306
1 12.8546 16.8626 14.9345
1 12.2269 0.544168 13.9062
2 12.4636 0.396022 14.2466
2 12.5308 0.0861766 14.6757
1 6.5784 0.397355 1.56998
1 6.90364 0.569228 2.79603
2 6.76315 0.428859 2.04993
2 6.71318 0.342212 2.34797
1 2.21659 10.5827 4.27203
1 2.54364 12.1091 4.13353
2 2.44033 11.576 4.12613
2 2.51567 11.2223 4.42062
1 10.0592 5.58611 10.1123
1 10.0564 5.27567 11.8628
2 9.78016 5.2843 10.6468
2 9.99692 5.48132 11.1873
1 11.3544 14.7887 9.852
1 11.142 15.3016 8.50339
2 11.3599 15.2971 9.28998
2 11.2359 14.9473 9.13931
1 1.71503 6.85326 14.8357
1 1.08516 5.98157 14.1366
2 1.36761 6.33947 14.5384
2 1.38232 6.49702 14.5112
1 1.57467 3.75738 5.41336
1 2.72926 3.12568 6.16438
2 2.19129 3.46872 5.89617
2 2.28383 3.32895 5.84584
1 5.50681 12.6485 5.95141
1 4.96735 12.1417 7.27209
2 5.36296 12.5742 6.71008
2 5.19071 12.2638 6.66847
1 16.2816 0.281298 12.9145
1 16.7817 16.0384 12.7173
2 16.5421 16.9398 12.9303
2 16.6255 16.6709 12.8879
1 11.2432 11.8481 9.39289
1 10.2278 11.2457 8.4308
2 10.7279 11.7253 9.24343
2 10.7654 11.4272 8.95699
1 11.5857 6.93367 7.4876
1 11.7876 5.50528 8.05683
2 11.8532 6.06262 7.82402
2 11.562 6.11991 7.95764
1 0.298362 13.2047 10.8209
1 0.0533024 13.5385 12.2937
2 0.379009 13.1742 11.9743
2 0.347933 13.0797 11.5783
1 13.637 10.0215 11.9864
1 14.151 11.2479 12.6557
2 13.6611 10.6018 12.4
2 13.9614 10.8725 12.3097
1 4.39056 6.09189 5.93806
1 5.04424 4.79482 6.02394
2 4.95239 5.15608 5.87472
2 5.00181 5.33262 6.10777
1 2.69103 15.8515 6.06878
1 3.93501 15.895 5.01436
2 3.28673 15.7412 5.50099
2 3.38028 15.8705 5.77088
1 6.48481 6.78462 0.714148
1 5.80803 6.6097 16.446
2 6.13095 6.68868 17.0392
2 6.15018 6.64439 -0.0520465
1 11.7167 0.644825 2.06176
1 11.6638 0.169385 0.802663
2 11.68 0.406055 1.58451
2 11.5386 0.340643 1.39871
1 5.81548 16.7259 13.4579
1 6.11728 0.242764 12.0465
2 5.78413 17.1225 12.5611
2 5.70444 -0.252034 13.0106
1 14.2358 14.2613 1.5051
1 13.161 14.3867 2.61244
2 13.5463 14.3244 2.11878
2 13.5251 14.4763 1.89915
1 13.5174 13.5236 12.4291
1 12.7453 14.6087 12.4069
2 13.4925 13.8944 12.4433
2 12.96 14.132 12.3044
1 7.45598 6.33929 4.95216
1 8.31935 7.08186 5.66328
2 8.11997 6.72361 5.35721
2 7.82588 6.62213 5.36576
1 16.6433 3.24817 13.2787
1 15.2812 3.46267 13.9386
2 16.041 3.34059 13.6509
2 16.1292 3.50228 13.5296
1 12.7564 2.20423 4.39399
1 12.851 3.22277 3.47863
2 12.707 2.84256 3.98444
2 12.7628 2.93768 4.03211
1 8.13289 3.64767 12.1547
1 6.86551 3.66849 13.1789
2 7.1501 3.36821 12.988
2 7.36706 3.54175 12.6926
1 9.58196 0.768965 15.6175
1 9.22736 1.72571 14.4366
2 9.25615 1.2939 14.8845
2 9.40872 1.37537 15.0729
1 7.37622 12.7814 14.2225
1 6.14029 13.6052 14.0347
2 6.91929 12.9731 14.1973
2 6.50875 13.1969 14.0716
1 1.59204 12.257 8.26882
1 0.767738 13.3464 7.52158
2 1.09702 12.7256 8.05905
2 1.31531 12.7627 7.93233
1 14.2835 13.1897 9.17996
1 14.3636 12.0567 8.45165
2 14.1435 12.6691 8.7831
2 14.3031 12.5985 8.97176
1 5.94278 4.63124 2.0656
1 6.33406 4.21675 3.41066
2 6.34289 4.52596 3.03598
2 5.97024 4.60784 2.61388
1 7.75408 9.01867 7.99487
1 7.89731 10.4526 8.09464
2 7.80006 9.32185 8.118
2 7.81115 9.8994 7.98237
1 1.80298 14.3193 1.84105
1 2.45897 14.7223 3.01437
2 1.90322 14.556 2.42958
2 2.13091 14.5178 2.39865
1 8.12206 2.49267 4.88616
1 9.07986 3.45811 3.99653
2 8.36978 2.81165 4.58267
2 8.76741 3.15705 4.42374
1 8.53167 4.56087 8.87249
1 8.22474 4.38618 7.28706
2 8.25762 4.26475 8.1378
2 8.619 4.38397 8.18923
1 8.27841 16.8712 10.2323
1 7.85932 16.3731 9.05746
2 8.10341 16.5303 9.66329
2 8.13676 16.6914 10.0006
1 6.1233 7.43599 9.56339
1 5.1208 6.6452 9.29848
2 5.78792 6.91964 9.5149
2 5.55758 7.01579 9.49998
1 2.13558 0.602062 8.83515
1 2.66275 1.24456 7.86815
2 2.40621 0.934572 8.10556
2 2.57063 1.02177 8.29602
1 3.5456 1.81361 1.70255
1 3.34214 0.572104 2.39925
2 3.33591 0.906605 2.06162
2 3.50001 1.40915 1.9809
1 14.754 2.10897 16.5683
1 13.3053 2.417 16.538
2 14.0589 2.51211 16.5671
2 14.1963 2.37953 16.3773
1 8.76434 10.2711 16.5656
1 9.46012 9.72936 15.2677
2 9.02033 9.86657 16.0754
2 9.08668 10.1829 15.7737
1 3.12368 2.29314 12.3208
1 2.59458 3.55744 11.8344
2 2.66726 2.89483 12.0225
2 2.84227 3.16406 12.1458
1 14.1451 3.85649 7.71932
1 14.1536 2.78691 6.93683
2 14.234 3.44977 7.20697
2 14.2806 3.29859 7.38262
1 16.6087 3.09546 10.5192
1 16.0193 2.15007 9.38465
2 16.1639 2.76386 10.0017
2 16.304 2.20319 9.70124
1 11.1482 2.28371 8.09768
1 10.8078 1.18618 8.6966
2 10.7123 1.7453 8.4163
2 10.995 1.70249 8.30274
1 12.6949 12.1791 6.05231
1 12.1545 12.5123 4.72072
2 12.276 12.1663 5.28232
2 12.2372 12.2735 5.33656
1 8.35391 14.9476 0.170077
1 9.45843 14.3151 16.6751
2 8.82497 14.6485 0.00520584
2 8.54741 14.686 16.9055
1 15.7902 14.6597 6.2071
1 16.0534 13.4353 5.38686
2 15.8292 14.0537 5.74944
2 15.9721 13.8728 5.84619
1 2.58726 9.65863 12.3289
1 2.2321 10.9426 13.0665
2 2.5812 10.2531 12.9378
2 2.38571 10.297 12.7003
1 4.20812 4.43013 16.6392
1 2.76526 4.63595 16.6603
2 3.72413 4.35919 16.6479
2 3.26226 4.64749 16.7986
1 12.7767 5.19047 1.09949
1 14.1962 5.31494 1.22036
2 13.2584 5.18309 1.112
2 13.5986 5.14908 1.18513
1 4.45234 8.84992 5.83316
1 5.49434 8.4617 5.09506
2 4.96946 8.67583 5.51282
2 4.64104 8.53589 5.53446
1 8.60754 15.9542 12.5108
1 9.61277 15.3834 13.418
2 9.2959 15.6724 13.26
2 9.24788 15.6427 13.0768
1 5.27057 8.95918 15.5052
1 5.52889 9.70246 14.465
2 5.50179 9.33455 14.9979
2 5.38908 9.36868 15.0277
1 4.07957 14.4987 12.1215
1 2.96139 13.8585 13.1484
2 3.78893 14.1867 12.4928
2 3.50369 14.327 12.7112
1 3.55583 5.72961 2.99744
1 2.27138 6.35182 3.09165
2 2.9332 6.10102 3.19273
2 2.86968 6.05833 3.10519
1 9.7549 1.58593 12.3833
1 10.4566 2.37019 11.429
2 9.93816 1.97681 11.8535
2 10.1718 2.04685 11.8813
1 12.8295 16.7189 10.18
1 13.9433 0.67489 10.7406
2 13.5832 0.24825 10.1944
2 13.456 0.0357041 10.3598
1 9.43149 3.0472 0.307545
1 9.5017 3.80985 1.40738
2 9.50911 3.56875 0.594015
2 9.46866 3.54434 0.923938
1 15.9761 4.53976 4.04991
1 16.9224 3.89665 3.17455
2 16.6063 4.19636 3.48401
2 16.5299 4.45081 3.5488
1 8.51481 6.51888 14.6716
1 8.91163 7.53101 13.4982
2 8.75072 7.13521 13.9456
2 8.73856 6.7221 14.1396
1 2.35073 12.0496 16.1736
1 3.14552 12.1875 15.1721
2 2.48578 12.029 15.8052
2 2.92752 12.2522 15.6459
1 0.110224 10.093 10.1738
1 16.9619 9.75411 8.92511
2 -0.0151789 9.76767 9.2733
2 -0.185796 9.8767 9.40671
1 10.2115 11.9053 2.33804
1 11.1191 11.0493 1.50565
2 10.7018 11.4563 2.02288
2 10.5959 11.7035 1.81191